ITEM: TIMESTEP
1000
ITEM: NUMBER OF ATOMS
4001
ITEM: BOX BOUNDS pp pp pp
0.0000000000000000e+00 3.4945000000000000e+01
0.0000000000000000e+00 3.4945000000000000e+01
0.0000000000000000e+00 3.4945000000000000e+01
ITEM: ATOMS id type x y z 
2 1 1.72684 1.75175 0.00647301 
4 2 1.72899 0.00870256 1.73973 
7 1 3.49137 1.73656 1.74158 
41 1 0.00879193 3.50717 0.00240891 
44 2 1.75017 3.49056 1.74432 
45 2 3.48603 3.49165 0.0129262 
402 2 1.75202 1.75172 3.47692 
445 2 3.50271 3.4921 3.4799 
6 2 5.23361 1.74342 0.0053041 
8 2 5.25181 0.0103369 1.75452 
11 1 6.99638 1.74838 1.74318 
48 2 5.24011 3.483 1.7437 
406 1 5.2422 1.74655 3.49221 
409 2 6.99516 0.0209719 3.50197 
449 1 6.97249 3.48397 3.49794 
10 2 8.75245 1.75094 0.00629965 
12 1 8.74628 0.00862923 1.74614 
15 2 10.4898 1.7398 1.74469 
52 2 8.7401 3.48795 1.75805 
53 1 10.4886 3.49359 0.00636844 
410 2 8.72784 1.7517 3.50444 
413 2 10.475 0.00699392 3.50442 
453 1 10.485 3.47954 3.49864 
19 1 13.9738 1.73887 1.74788 
56 2 12.2325 3.47644 1.75687 
57 2 13.9647 3.47915 0.0158168 
414 1 12.2289 1.7456 3.5011 
417 2 13.978 0.0117735 3.50547 
457 1 13.989 3.47148 3.49815 
18 2 15.7171 1.74989 0.0100726 
23 2 17.4712 1.74141 1.7616 
24 1 19.2071 0.00616373 1.75739 
60 2 15.7135 3.49125 1.75399 
64 2 19.2121 3.47017 1.74361 
418 1 15.72 1.73277 3.50942 
421 2 17.4731 0.00373194 3.51545 
422 1 19.2158 1.74334 3.50525 
461 2 17.4654 3.48472 3.50509 
27 1 20.9545 1.73271 1.72931 
28 1 22.7062 0.00276163 1.7509 
68 2 22.7172 3.46435 1.7391 
425 1 20.9609 0.0155634 3.49847 
426 1 22.7099 1.74515 3.49417 
465 2 20.9575 3.4722 3.49895 
29 2 24.4652 0.0108903 0.00198787 
31 1 24.4696 1.74011 1.74258 
32 1 26.2201 0.00278382 1.75669 
72 1 26.2087 3.50375 1.74679 
429 1 24.476 0.0167503 3.48924 
430 1 26.2187 1.76476 3.4934 
469 2 24.4541 3.48281 3.48662 
34 2 29.6935 1.75198 0.00137338 
35 1 27.957 1.74444 1.74307 
73 1 27.958 3.47851 0.000642947 
76 1 29.7084 3.49205 1.75612 
433 1 27.9644 0.00670464 3.49181 
434 1 29.7215 1.75638 3.48473 
473 2 27.9672 3.48683 3.48323 
36 1 29.719 0.00058586 1.7479 
3 1 34.9338 1.7539 1.74501 
39 1 31.4531 1.76057 1.71821 
80 2 33.1879 3.50165 1.72848 
401 2 34.9324 0.00252593 3.48489 
438 2 33.1735 1.74216 3.47865 
441 2 34.9305 3.49491 3.48703 
477 1 31.4571 3.49762 3.49133 
43 2 0.0108798 5.24342 1.73274 
47 1 3.5072 5.25372 1.74831 
84 2 1.75889 6.99181 1.7413 
442 2 1.75032 5.23836 3.48458 
481 2 0.00744596 6.99757 3.48854 
485 2 3.50539 6.98437 3.50221 
51 2 6.98289 5.22125 1.75249 
88 2 5.26106 6.97891 1.74819 
446 2 5.24545 5.23611 3.48733 
489 2 6.99217 6.97984 3.51756 
50 2 8.73219 5.23654 0.0112463 
55 2 10.4968 5.23509 1.7654 
92 1 8.73408 6.97172 1.76489 
450 2 8.73915 5.22364 3.49805 
493 2 10.4933 6.97885 3.50902 
54 2 12.2391 5.2232 0.00473493 
59 1 13.9769 5.23339 1.74429 
96 2 12.2439 6.99424 1.73652 
97 2 13.993 6.97483 0.0112236 
454 2 12.25 5.21877 3.50659 
497 1 13.9806 6.99162 3.48629 
58 1 15.7107 5.23884 0.00776344 
63 2 17.4558 5.23532 1.74496 
100 1 15.7255 6.97567 1.7636 
104 2 19.192 6.97983 1.73096 
458 2 15.7148 5.22842 3.50195 
462 1 19.2163 5.2361 3.48648 
501 2 17.4678 6.97847 3.49604 
67 2 20.9538 5.22229 1.75156 
108 2 22.7103 6.98529 1.73839 
466 2 22.6885 5.22676 3.49247 
505 2 20.9456 6.99256 3.48201 
71 2 24.456 5.23119 1.74407 
112 2 26.2247 6.97249 1.74359 
470 2 26.2138 5.23304 3.50108 
509 2 24.4699 6.99137 3.47824 
74 1 29.7078 5.23441 0.0050674 
75 2 27.9708 5.23819 1.74736 
116 1 29.6992 6.99598 1.75219 
474 2 29.7037 5.23516 3.49301 
513 1 27.954 6.98645 3.49678 
79 2 31.441 5.24528 1.7488 
120 2 33.1891 7.00016 1.73042 
478 2 33.1965 5.25105 3.49033 
517 2 31.4395 6.98876 3.49431 
83 2 0.000705014 8.73528 1.73599 
87 2 3.52029 8.71944 1.74396 
124 2 1.74438 10.4803 1.73861 
482 2 1.77036 8.74512 3.50029 
521 1 0.00897133 10.4659 3.49067 
525 2 3.50559 10.4843 3.50087 
91 2 6.98815 8.71747 1.75738 
128 2 5.24672 10.4785 1.74465 
129 2 6.99994 10.4817 0.011407 
486 1 5.25196 8.71549 3.50486 
529 1 6.9741 10.4676 3.47938 
95 2 10.4895 8.73155 1.73473 
132 2 8.75428 10.4625 1.74795 
490 2 8.72186 8.73376 3.50226 
533 1 10.4814 10.4595 3.49289 
99 1 13.9846 8.73874 1.73453 
136 1 12.2218 10.4792 1.75059 
137 2 13.9576 10.4824 0.00459941 
494 2 12.2412 8.73248 3.49111 
537 2 13.9646 10.4749 3.50796 
103 2 17.4501 8.72864 1.73768 
140 2 15.7063 10.4829 1.75479 
144 2 19.2273 10.4762 1.73678 
498 2 15.7215 8.7339 3.50509 
502 1 19.2057 8.73427 3.4724 
541 2 17.4797 10.4925 3.49006 
107 2 20.9551 8.74161 1.72917 
148 1 22.7021 10.471 1.73958 
506 2 22.6984 8.73688 3.48318 
545 1 20.9601 10.4637 3.49902 
111 2 24.4661 8.72776 1.73077 
152 2 26.1989 10.4766 1.73561 
510 2 26.2228 8.73594 3.50207 
549 2 24.4492 10.4721 3.47214 
114 1 29.7002 8.7288 0.00688923 
115 1 27.9471 8.73496 1.72497 
156 2 29.7143 10.4632 1.73259 
514 2 29.6872 8.73763 3.46612 
553 1 27.951 10.4879 3.49205 
119 1 31.4634 8.7377 1.73443 
160 1 33.2152 10.4784 1.74009 
518 2 33.2024 8.73823 3.48406 
557 2 31.4677 10.4703 3.48364 
123 2 0.00270607 12.2157 1.74442 
127 2 3.5008 12.2402 1.7356 
161 2 0.0045213 13.9589 0.0100379 
164 2 1.73885 13.9775 1.75085 
522 1 1.7337 12.2258 3.49557 
565 2 3.4918 13.9679 3.49588 
131 2 6.99078 12.2394 1.75913 
168 2 5.24626 13.9802 1.74769 
169 2 6.99708 13.9949 0.0139736 
526 1 5.24578 12.2296 3.50348 
569 1 6.97361 13.9809 3.4989 
135 1 10.4715 12.2202 1.75267 
172 2 8.74301 13.9815 1.7629 
530 2 8.72478 12.2256 3.5021 
573 1 10.4855 13.9824 3.50028 
139 2 13.9672 12.2307 1.75514 
176 2 12.2296 13.9649 1.75173 
177 2 13.9767 13.99 0.0154608 
534 2 12.2132 12.2316 3.49604 
577 1 13.9772 13.969 3.50739 
143 2 17.4666 12.2436 1.74296 
180 1 15.7253 13.9792 1.74502 
184 2 19.2006 13.9954 1.74485 
538 2 15.7268 12.2396 3.50678 
542 2 19.2331 12.2283 3.49003 
581 1 17.4712 13.9798 3.50254 
146 2 22.7172 12.2331 0.0170768 
147 2 20.9687 12.2166 1.7633 
185 2 20.9513 13.9689 0.0167545 
188 2 22.7075 13.9907 1.76521 
546 1 22.7057 12.2179 3.49605 
585 1 20.9714 13.99 3.49717 
150 1 26.2029 12.2138 0.0067985 
151 2 24.4499 12.221 1.74609 
189 2 24.4704 13.9775 0.0046638 
192 2 26.2105 13.9905 1.74975 
550 2 26.1987 12.2377 3.48665 
589 2 24.4444 13.9895 3.50291 
154 1 29.707 12.2228 0.0135726 
155 2 27.9544 12.2158 1.74657 
193 1 27.9503 13.9719 0.00741373 
196 2 29.715 13.9724 1.75242 
554 2 29.7058 12.2253 3.48214 
593 2 27.9615 13.9631 3.49495 
158 1 33.2023 12.2161 0.00640115 
159 2 31.4668 12.2089 1.74055 
197 2 31.4458 13.9551 0.00441734 
200 1 33.2033 13.9663 1.73487 
558 2 33.2239 12.2126 3.48804 
561 1 34.9417 13.9715 3.48461 
597 2 31.4708 13.9713 3.48853 
162 1 1.74164 15.7339 0.0102773 
163 2 0.00356936 15.7211 1.75365 
167 1 3.48848 15.7131 1.75885 
201 2 0.00346787 17.4757 0.000994305 
202 2 1.74379 19.2074 0.00484635 
203 2 0.00461368 19.2277 1.75661 
204 1 1.75165 17.4624 1.74618 
205 1 3.49232 17.4686 0.00519239 
207 1 3.47154 19.2263 1.74985 
562 2 1.74517 15.7077 3.48508 
601 2 0.00579098 17.4702 3.50576 
602 2 1.73927 19.2312 3.48974 
605 1 3.47998 17.4786 3.49816 
166 1 5.24687 15.7413 0.0113263 
171 1 6.98893 15.7276 1.76923 
206 2 5.22527 19.2123 0.00140713 
208 2 5.21277 17.4796 1.76792 
209 2 6.97558 17.4698 0.00974464 
211 2 6.9665 19.2238 1.75327 
566 2 5.24462 15.7311 3.49129 
606 1 5.21037 19.2373 3.49453 
609 1 6.98093 17.4943 3.49233 
175 2 10.4793 15.7076 1.73825 
210 2 8.73166 19.2182 0.015837 
212 2 8.72885 17.4697 1.76031 
215 2 10.4823 19.2188 1.7639 
570 1 8.73812 15.7219 3.49909 
610 1 8.72165 19.2244 3.49275 
613 2 10.4784 17.4692 3.4927 
179 1 13.9756 15.7253 1.75583 
214 2 12.2396 19.2218 0.0160302 
216 2 12.2495 17.471 1.75654 
219 2 13.9945 19.2013 1.7621 
574 2 12.2283 15.7227 3.50009 
614 1 12.2347 19.2189 3.49861 
617 1 13.9742 17.4757 3.51081 
178 2 15.7226 15.7432 0.00744858 
183 2 17.4591 15.7344 1.74855 
220 1 15.7142 17.4782 1.74649 
222 2 19.2126 19.2175 0.00227384 
223 1 17.4659 19.2134 1.74007 
224 1 19.2127 17.474 1.75248 
578 2 15.7127 15.7188 3.49281 
582 2 19.225 15.7343 3.50983 
618 1 15.7388 19.2133 3.50713 
621 2 17.4631 17.4739 3.48993 
622 2 19.2124 19.2131 3.48669 
187 2 20.9704 15.746 1.76232 
225 2 20.9665 17.4783 0.0119603 
226 2 22.7388 19.2214 0.00551158 
227 1 20.972 19.2114 1.75057 
228 1 22.7249 17.4711 1.74525 
586 1 22.7087 15.74 3.50501 
625 2 20.9795 17.4808 3.50423 
626 2 22.736 19.2107 3.49927 
191 2 24.4653 15.7431 1.74557 
230 1 26.2114 19.2191 0.00502972 
231 1 24.4787 19.2076 1.75748 
232 1 26.2258 17.466 1.7534 
590 1 26.229 15.7146 3.51331 
629 1 24.4811 17.4639 3.49176 
630 1 26.2207 19.2241 3.50321 
195 2 27.9557 15.7316 1.7426 
235 1 27.9598 19.213 1.74362 
236 2 29.6977 17.471 1.75544 
594 2 29.7068 15.7196 3.50903 
633 2 27.9544 17.477 3.4974 
634 2 29.7005 19.2234 3.50422 
199 2 31.4609 15.7205 1.74305 
239 2 31.4427 19.2262 1.74943 
240 2 33.204 17.4727 1.74256 
598 2 33.2067 15.7292 3.49942 
637 2 31.4585 17.4743 3.50411 
638 1 33.2052 19.2101 3.48942 
242 2 1.72272 22.7252 0.00188923 
244 1 1.73051 20.9714 1.73618 
247 2 3.49495 22.7032 1.75275 
642 2 1.72952 22.726 3.48676 
645 2 3.47449 20.9767 3.49069 
248 1 5.24222 20.9625 1.73135 
251 1 6.98874 22.7117 1.73952 
646 2 5.25286 22.7042 3.49108 
649 2 6.9791 20.9677 3.49819 
250 2 8.73755 22.7166 0.0171031 
252 2 8.71972 20.9783 1.75963 
255 2 10.4655 22.7223 1.75223 
650 1 8.72111 22.7252 3.49177 
653 2 10.4717 20.9592 3.498 
254 2 12.2352 22.721 0.0117228 
256 2 12.2329 20.9682 1.75664 
257 2 13.9922 20.9591 0.0116835 
259 2 13.9806 22.7227 1.77241 
654 2 12.2199 22.7165 3.49889 
657 2 13.9897 20.9541 3.50298 
258 2 15.7338 22.7119 0.00244006 
260 2 15.7431 20.9476 1.74494 
263 2 17.48 22.7162 1.75581 
264 2 19.218 20.9462 1.74695 
658 2 15.738 22.7003 3.51469 
661 1 17.4757 20.9553 3.50394 
662 2 19.2303 22.7143 3.49669 
265 2 20.9721 20.978 0.01408 
266 1 22.7081 22.7088 0.0128062 
267 2 20.9807 22.7139 1.75456 
268 2 22.7329 20.9565 1.75577 
665 1 20.9801 20.9439 3.49458 
666 1 22.7101 22.7249 3.50535 
269 1 24.4799 20.9745 0.00417553 
270 1 26.2219 22.725 0.0152135 
271 1 24.4593 22.725 1.76377 
272 1 26.2177 20.9769 1.76338 
669 2 24.4593 20.9731 3.48631 
670 2 26.2229 22.7243 3.49164 
273 2 27.9419 20.9611 0.00406448 
274 2 29.7136 22.7158 0.00425689 
275 2 27.97 22.715 1.75998 
276 2 29.7078 20.9704 1.74077 
673 2 27.9667 20.96 3.50122 
674 1 29.7157 22.7081 3.49492 
243 2 34.9218 22.7177 1.73688 
279 1 31.4601 22.7105 1.74564 
280 1 33.1855 20.9635 1.74023 
641 1 34.9365 20.9679 3.4897 
677 2 31.462 20.9624 3.49687 
678 2 33.1859 22.7099 3.48378 
284 1 1.74816 24.4697 1.74932 
285 2 3.48452 24.4667 0.000668645 
287 2 3.50151 26.2028 1.75416 
682 1 1.73445 26.1911 3.49261 
685 1 3.50804 24.4542 3.49356 
286 1 5.24588 26.1878 0.00728535 
288 2 5.24845 24.4515 1.74423 
289 2 6.9884 24.4713 0.0126195 
291 1 6.98179 26.2265 1.74879 
686 2 5.24135 26.217 3.49316 
689 1 6.99097 24.4706 3.48555 
290 2 8.7186 26.2355 0.0128597 
292 1 8.72974 24.4727 1.74788 
295 2 10.4743 26.2289 1.74673 
690 2 8.73465 26.2253 3.48132 
693 2 10.4691 24.47 3.49322 
294 2 12.2459 26.2215 0.0070006 
296 2 12.2166 24.4818 1.75423 
297 2 13.9932 24.4761 0.010186 
299 2 13.9869 26.2225 1.76418 
694 1 12.2311 26.2123 3.50004 
697 2 13.9831 24.4733 3.52159 
298 1 15.7357 26.2039 0.00349813 
300 2 15.7433 24.4654 1.75115 
303 1 17.469 26.2148 1.73617 
304 2 19.2155 24.4821 1.74054 
698 2 15.7157 26.2156 3.49947 
701 1 17.4637 24.4716 3.51283 
702 2 19.2106 26.2112 3.50565 
306 1 22.7086 26.2302 0.00635344 
307 2 20.9598 26.2233 1.75239 
308 2 22.7142 24.4661 1.75319 
705 1 20.974 24.4811 3.49225 
706 2 22.7342 26.2022 3.4955 
309 2 24.4448 24.4549 0.01215 
310 2 26.2028 26.2026 0.00430069 
311 2 24.4777 26.2065 1.74949 
312 2 26.2217 24.462 1.7638 
709 1 24.4896 24.4763 3.50107 
710 1 26.218 26.2276 3.50248 
313 2 27.966 24.4713 0.00289125 
314 2 29.7163 26.2266 0.000989792 
315 1 27.9644 26.2177 1.7469 
316 2 29.7196 24.4653 1.75956 
713 2 27.9689 24.4756 3.49737 
714 1 29.7193 26.2243 3.49924 
283 2 34.9332 26.1916 1.73086 
319 2 31.4464 26.2111 1.73844 
320 1 33.1747 24.4616 1.72957 
681 1 34.9136 24.4689 3.48221 
717 2 31.4569 24.4654 3.49961 
718 2 33.1893 26.2189 3.48265 
324 2 1.73849 27.9349 1.74246 
327 2 3.49445 29.6965 1.75521 
722 2 1.75193 29.6939 3.49738 
725 2 3.48253 27.9568 3.49193 
326 1 5.22805 29.7058 0.00353486 
328 2 5.24095 27.9607 1.73898 
331 2 6.98107 29.6983 1.74235 
726 1 5.22727 29.7088 3.5078 
729 2 6.98454 27.964 3.48964 
332 1 8.72124 27.9758 1.74179 
333 2 10.4956 27.9811 0.0124577 
335 2 10.4798 29.7127 1.75161 
730 1 8.72989 29.7111 3.49752 
733 2 10.5005 27.9761 3.47693 
334 2 12.2359 29.7211 0.00954886 
336 1 12.2518 27.9672 1.74857 
339 2 13.9787 29.7105 1.74265 
734 1 12.2469 29.7178 3.49737 
737 1 13.9755 27.9674 3.50935 
338 1 15.7221 29.7092 0.0126502 
340 2 15.7225 27.9577 1.73368 
342 1 19.2313 29.7045 0.00709794 
343 2 17.4869 29.6938 1.75785 
344 1 19.217 27.957 1.7509 
738 2 15.7248 29.7105 3.49425 
741 2 17.4652 27.9517 3.49135 
742 2 19.2209 29.7065 3.50021 
345 2 20.9605 27.9731 0.00663046 
346 2 22.6968 29.7152 0.00492045 
347 1 20.9668 29.7196 1.74921 
348 2 22.7039 27.9673 1.76238 
745 2 20.9633 27.9581 3.50951 
746 2 22.7072 29.7177 3.5029 
349 2 24.4595 27.9575 0.00473448 
351 2 24.4614 29.7138 1.75129 
352 2 26.2236 27.9672 1.74838 
749 2 24.4691 27.9503 3.50376 
750 2 26.219 29.7175 3.49164 
353 2 27.9655 27.9669 0.00285217 
355 1 27.9602 29.7236 1.74887 
356 2 29.7077 27.9686 1.74826 
753 2 27.966 27.963 3.48885 
754 2 29.716 29.7198 3.48293 
323 2 34.9405 29.7067 1.74668 
357 1 31.4512 27.9678 0.0117369 
359 2 31.4639 29.7147 1.74049 
360 1 33.1966 27.9586 1.73402 
721 2 34.9374 27.9424 3.48826 
757 2 31.4671 27.9711 3.49115 
758 1 33.2096 29.7041 3.50455 
363 1 0.00702548 33.1805 1.74004 
364 2 1.73913 31.448 1.74646 
365 2 3.49719 31.4504 0.0120692 
367 2 3.47974 33.2114 1.7444 
405 2 3.49175 34.9408 3.49973 
762 2 1.73357 33.1977 3.49284 
765 1 3.48768 31.4545 3.48603 
366 1 5.24241 33.2124 0.010692 
368 2 5.23766 31.4545 1.75024 
369 2 6.9857 31.4506 0.0033865 
371 2 7.00185 33.2189 1.74703 
766 2 5.23716 33.1974 3.48079 
769 2 6.97562 31.4432 3.51409 
13 2 10.484 34.9366 0.00730709 
370 2 8.74078 33.184 0.0125719 
372 2 8.73169 31.4429 1.76046 
373 1 10.4731 31.4535 0.00675825 
375 1 10.4706 33.1833 1.76143 
770 2 8.73478 33.1879 3.49644 
773 2 10.4805 31.4437 3.49971 
16 2 12.2236 34.9346 1.75285 
17 2 13.9741 34.927 0.000389588 
374 1 12.2314 33.1969 0.01098 
376 2 12.2295 31.457 1.75342 
379 1 13.9867 33.185 1.76179 
774 2 12.234 33.1937 3.49773 
777 2 13.9879 31.4486 3.50284 
20 2 15.727 34.9426 1.76244 
380 2 15.7294 31.4531 1.76058 
381 2 17.4763 31.434 0.0115014 
383 2 17.4644 33.2005 1.75218 
384 2 19.2172 31.4572 1.73748 
778 2 15.7225 33.209 3.51719 
781 1 17.4749 31.4609 3.50755 
782 2 19.2094 33.2154 3.49794 
25 2 20.9585 34.9375 0.000832471 
385 1 20.9667 31.4627 0.000463004 
387 2 20.9588 33.2127 1.74305 
388 2 22.7086 31.4735 1.74505 
785 2 20.9544 31.4712 3.48718 
786 2 22.7247 33.2269 3.4895 
391 2 24.4689 33.2231 1.74628 
392 2 26.216 31.474 1.7381 
789 2 24.468 31.4738 3.49516 
790 1 26.2165 33.1977 3.50541 
395 2 27.9738 33.214 1.73843 
396 2 29.7184 31.4632 1.73665 
793 2 27.9764 31.4712 3.49192 
794 1 29.7234 33.2006 3.48941 
1 1 34.9393 34.9348 0.00637596 
37 2 31.4629 34.9416 0.00110076 
40 2 33.1945 34.9293 1.73792 
398 2 33.1994 33.1735 0.00168918 
399 1 31.4608 33.1785 1.7369 
400 1 33.2108 31.448 1.75384 
437 1 31.451 34.9453 3.47994 
761 2 34.9436 31.4541 3.50217 
797 1 31.4628 31.4489 3.48763 
798 1 33.2087 33.2065 3.48893 
404 2 1.74034 0.014575 5.2566 
407 2 3.50278 1.74783 5.22622 
444 1 1.74355 3.49127 5.22405 
802 2 1.74734 1.74699 6.9901 
805 1 3.49891 0.0108421 6.98545 
845 2 3.481 3.49256 6.99138 
408 1 5.23979 0.00141635 5.22446 
411 1 6.98324 1.73999 5.2536 
448 2 5.23555 3.48622 5.2481 
806 1 5.23345 1.74431 6.98135 
809 1 6.98425 0.00444517 6.99313 
849 2 6.98353 3.48518 6.99872 
415 2 10.4882 1.75221 5.25355 
452 2 8.73315 3.48679 5.23805 
810 1 8.73497 1.75271 6.99145 
853 2 10.4926 3.49331 6.99648 
419 1 13.9615 1.7414 5.26122 
456 2 12.2418 3.48536 5.25322 
814 1 12.2246 1.7447 7.00728 
857 1 13.9883 3.46944 7.00212 
420 1 15.7155 0.0163017 5.26384 
423 1 17.4759 1.7539 5.25056 
424 2 19.2108 0.00756864 5.24056 
460 2 15.7123 3.47423 5.25224 
464 2 19.2347 3.49327 5.2436 
818 2 15.7294 1.75094 6.99317 
821 2 17.4768 0.00890269 7.00469 
822 2 19.2215 1.75016 6.995 
861 2 17.4655 3.49891 7.00741 
427 1 20.9753 1.73594 5.25347 
428 2 22.7277 0.0177611 5.23737 
468 1 22.698 3.49321 5.23032 
826 1 22.7241 1.74453 6.99557 
865 2 20.9801 3.49098 6.9817 
431 2 24.4604 1.75498 5.22947 
432 1 26.2215 0.0095568 5.23708 
472 2 26.2024 3.49957 5.23683 
829 2 24.4648 0.00139054 6.98759 
830 2 26.2129 1.74886 6.98225 
869 2 24.4398 3.5031 6.99234 
435 1 27.9584 1.75007 5.23781 
436 2 29.7189 0.00452723 5.22737 
476 2 29.709 3.49154 5.23372 
833 2 27.9681 0.0131301 6.97914 
834 1 29.7173 1.75728 6.98214 
873 2 27.9671 3.50068 6.97895 
403 2 34.9328 1.75147 5.23821 
439 1 31.4599 1.7552 5.24581 
440 1 33.1873 0.00900057 5.22198 
480 2 33.2035 3.48861 5.24507 
801 1 34.9267 0.00898595 6.98542 
837 2 31.4603 0.00319787 6.96917 
838 2 33.1907 1.74892 7.00088 
841 1 34.9409 3.49288 6.98464 
877 2 31.4566 3.51624 6.98802 
443 2 0.000815147 5.23357 5.24496 
447 2 3.4931 5.23293 5.22867 
484 2 1.75811 6.97775 5.24205 
842 2 1.74314 5.23664 6.98009 
881 2 0.00290589 6.97732 6.98667 
885 1 3.49054 6.97132 6.98307 
451 2 6.99461 5.22882 5.25342 
488 1 5.24406 6.97648 5.24188 
846 2 5.23882 5.24469 7.00288 
889 1 6.99123 6.96573 6.98831 
455 1 10.4822 5.22888 5.24186 
492 2 8.73073 6.98536 5.246 
850 2 8.74149 5.22538 7.00807 
893 1 10.4741 6.97 6.99069 
459 1 13.9869 5.23465 5.25961 
496 2 12.241 6.97767 5.2586 
854 2 12.238 5.23016 6.99484 
897 1 13.9796 6.98639 6.99786 
463 2 17.4787 5.2258 5.26203 
500 2 15.7127 6.98991 5.25313 
504 2 19.2153 6.98308 5.24291 
858 1 15.7127 5.23131 7.00063 
862 1 19.2344 5.22563 7.00387 
901 1 17.4886 6.98368 6.98966 
467 1 20.9574 5.25246 5.24084 
508 2 22.7213 6.97578 5.24258 
866 2 22.694 5.23998 6.98783 
905 2 20.9532 6.99162 6.98932 
471 2 24.4544 5.25236 5.23519 
512 1 26.2119 7.00039 5.22774 
870 2 26.2186 5.26399 6.9788 
909 2 24.4682 7.00435 6.98706 
475 1 27.9557 5.23533 5.2342 
516 2 29.6902 6.98358 5.23561 
874 1 29.7062 5.25806 6.97932 
913 2 27.9604 6.99883 6.978 
479 2 31.4456 5.23948 5.24763 
520 2 33.1956 7.00337 5.23906 
878 2 33.1917 5.24984 6.99627 
917 1 31.4509 6.99989 6.97786 
483 2 0.00815497 8.73827 5.23857 
487 2 3.50878 8.72259 5.25906 
524 2 1.73741 10.4831 5.24412 
882 1 1.7379 8.72151 6.9906 
925 1 3.49002 10.4753 6.98234 
491 1 6.98221 8.73959 5.25245 
528 2 5.25404 10.4676 5.25706 
886 1 5.24898 8.71202 6.99683 
929 1 6.97757 10.4874 7.00229 
495 2 10.4788 8.73 5.25582 
532 1 8.72433 10.4826 5.24618 
890 2 8.7223 8.7426 6.98548 
933 1 10.4844 10.4807 7.00282 
499 1 13.9736 8.74154 5.25466 
536 2 12.223 10.4836 5.2443 
894 2 12.2378 8.73212 6.99862 
937 1 13.9797 10.495 6.99252 
503 2 17.4696 8.72945 5.24971 
540 1 15.7323 10.4711 5.24823 
544 2 19.2111 10.4718 5.23141 
898 1 15.7097 8.73485 6.98472 
902 1 19.2341 8.74723 6.98725 
941 2 17.4667 10.4636 6.98623 
507 2 20.965 8.72898 5.23024 
548 2 22.7108 10.4858 5.21989 
906 2 22.7127 8.73099 6.99072 
945 2 20.967 10.4807 6.96749 
511 1 24.4441 8.73427 5.22515 
552 2 26.2135 10.4784 5.22986 
910 1 26.2142 8.73937 6.96282 
949 2 24.46 10.4699 6.98827 
515 1 27.972 8.73554 5.2356 
556 2 29.7095 10.4937 5.2238 
914 2 29.7012 8.72811 6.99492 
953 2 27.9748 10.4735 6.96525 
519 2 31.4364 8.74 5.2305 
560 1 33.2025 10.4644 5.24109 
918 2 33.2 8.74355 6.99237 
921 2 34.9408 10.4824 6.98568 
957 1 31.4434 10.475 6.98218 
527 2 3.48708 12.2229 5.23949 
564 1 1.74653 13.9621 5.23585 
922 2 1.74386 12.2258 6.97676 
965 2 3.48227 13.9694 6.99496 
531 2 6.98166 12.2191 5.24938 
568 2 5.22902 13.983 5.25182 
926 1 5.2342 12.2353 6.9969 
969 1 6.97871 13.9878 6.98987 
535 2 10.4747 12.2136 5.23077 
572 2 8.73295 13.9669 5.23607 
930 1 8.74142 12.225 6.99086 
973 2 10.4651 13.9661 6.97337 
539 2 13.9779 12.2256 5.25241 
576 1 12.2131 13.9799 5.24892 
934 2 12.2138 12.2239 6.99205 
977 2 13.9715 13.9619 6.97952 
543 2 17.4786 12.2423 5.24311 
580 1 15.729 13.9782 5.25785 
584 2 19.224 13.9954 5.22985 
938 2 15.7278 12.2139 6.98611 
942 2 19.2246 12.2279 6.98466 
981 2 17.4783 13.9898 6.98259 
547 1 20.9562 12.2205 5.22485 
588 1 22.702 13.9686 5.24119 
946 2 22.7127 12.2228 6.96747 
985 2 20.9639 13.9922 6.96644 
551 2 24.4554 12.2205 5.24087 
592 1 26.204 13.9607 5.23491 
950 2 26.2106 12.2178 6.98043 
989 2 24.4678 13.9729 6.98866 
555 1 27.9635 12.2395 5.23028 
596 1 29.7238 13.9593 5.23872 
954 2 29.7179 12.222 6.9763 
993 2 27.9575 13.9571 6.97405 
523 1 34.9426 12.2159 5.23824 
559 2 31.4639 12.2143 5.23534 
600 2 33.2148 13.9695 5.23211 
958 1 33.1971 12.2197 6.97876 
961 1 34.9443 13.9733 6.97873 
997 2 31.4728 13.9607 6.98729 
563 1 0.0059658 15.7153 5.23508 
567 2 3.47757 15.7248 5.22754 
604 2 1.73437 17.4731 5.233 
607 2 3.48672 19.2381 5.22957 
962 2 1.73444 15.7113 6.98346 
1001 1 0.00187823 17.4735 6.99727 
1002 2 1.72994 19.2208 6.99342 
1005 2 3.47705 17.4662 6.96499 
571 2 6.97933 15.733 5.23295 
608 1 5.2334 17.459 5.22837 
611 1 6.96746 19.2169 5.23066 
966 1 5.21991 15.7315 6.98672 
1006 2 5.22973 19.2085 6.96151 
1009 2 6.97045 17.4576 6.97885 
575 2 10.4737 15.7319 5.24071 
612 2 8.71626 17.4917 5.23455 
615 1 10.4819 19.2091 5.22737 
970 2 8.71202 15.7151 6.98288 
1010 2 8.72114 19.2207 6.98449 
1013 2 10.4662 17.4774 6.98694 
579 2 13.983 15.7102 5.24448 
616 2 12.2288 17.469 5.24051 
619 2 13.9703 19.2281 5.23765 
974 2 12.2252 15.7231 6.98832 
1014 2 12.2211 19.2212 6.97893 
1017 2 13.9898 17.4688 6.97976 
583 1 17.4626 15.7293 5.23372 
620 2 15.7346 17.4644 5.23583 
623 2 17.4751 19.2153 5.24286 
624 1 19.2096 17.4761 5.25134 
978 2 15.7385 15.723 6.99873 
982 1 19.2191 15.7233 6.97434 
1018 2 15.7254 19.2171 6.99705 
1021 1 17.4686 17.4664 6.99127 
1022 2 19.2318 19.1979 6.9991 
587 1 20.9767 15.7438 5.23467 
627 2 20.9812 19.2048 5.24182 
628 1 22.7313 17.4811 5.25385 
986 2 22.7045 15.7387 6.97159 
1025 1 20.9674 17.4674 6.99203 
1026 1 22.7235 19.2195 6.98955 
591 2 24.4542 15.7188 5.23845 
631 2 24.4733 19.2154 5.23457 
632 2 26.217 17.456 5.22954 
990 2 26.215 15.7074 6.98496 
1029 1 24.4836 17.4669 6.9819 
1030 2 26.2106 19.2177 6.97403 
595 2 27.9753 15.7051 5.24342 
635 1 27.9583 19.2103 5.24888 
636 1 29.7106 17.4778 5.24639 
994 2 29.723 15.7144 6.98206 
1033 2 27.9554 17.4672 6.97627 
1034 2 29.7156 19.2259 6.99097 
599 2 31.4622 15.7251 5.2537 
603 1 34.9415 19.2135 5.22865 
639 2 31.4631 19.2111 5.2497 
640 1 33.2096 17.4724 5.25661 
998 1 33.2122 15.717 6.979 
1037 2 31.4684 17.4714 6.98839 
1038 2 33.2107 19.2179 6.99427 
644 1 1.72759 20.9772 5.25589 
647 1 3.4779 22.7246 5.22927 
1042 2 1.7226 22.7219 6.98429 
1045 2 3.4888 20.9827 6.98202 
648 1 5.23529 20.9842 5.24282 
651 1 6.99052 22.7151 5.23013 
1046 2 5.24281 22.7358 6.97663 
1049 2 6.97856 20.9743 6.98592 
652 1 8.7316 20.9621 5.23109 
655 2 10.4677 22.7057 5.23896 
1050 2 8.71867 22.7132 6.97734 
1053 2 10.4726 20.9566 6.9863 
656 2 12.2134 20.9664 5.24663 
659 1 13.9672 22.7043 5.24555 
1054 2 12.2275 22.7193 6.99802 
1057 2 13.9737 20.9762 6.99144 
660 2 15.734 20.9686 5.24905 
663 1 17.4938 22.698 5.24886 
664 2 19.2369 20.9516 5.2374 
1058 2 15.7233 22.7171 6.9886 
1061 2 17.4882 20.9563 6.99277 
1062 2 19.234 22.725 6.98913 
667 2 20.968 22.729 5.23003 
668 1 22.7177 20.9739 5.23343 
1065 2 20.9786 20.9626 6.97885 
1066 2 22.7185 22.7139 6.97705 
671 2 24.4809 22.7313 5.22349 
672 2 26.219 20.9774 5.23785 
1069 2 24.4651 20.9598 6.97678 
1070 2 26.2347 22.7157 6.9847 
675 1 27.9729 22.7148 5.23976 
676 2 29.7068 20.9621 5.25333 
1073 2 27.9771 20.9754 6.9851 
1074 1 29.7121 22.7176 6.99104 
643 1 34.9299 22.7232 5.21999 
679 2 31.4478 22.7169 5.24756 
680 2 33.2103 20.9622 5.22882 
1041 2 34.9304 20.9641 6.97718 
1077 1 31.4576 20.9622 6.98507 
1078 1 33.2017 22.7111 6.98339 
684 2 1.72615 24.4516 5.21145 
687 2 3.50083 26.2014 5.22818 
1082 2 1.7512 26.2002 6.97572 
1085 2 3.4894 24.4666 6.96529 
688 2 5.2542 24.4583 5.22801 
691 1 6.99764 26.2354 5.22903 
1086 1 5.24674 26.2022 6.97891 
1089 2 6.99087 24.4793 6.97852 
692 2 8.72278 24.4617 5.22469 
695 2 10.4795 26.2194 5.24057 
1090 2 8.71713 26.2287 6.98963 
1093 2 10.4794 24.469 6.98894 
696 2 12.2334 24.4637 5.24554 
699 1 13.9583 26.2249 5.25106 
1094 2 12.2222 26.2142 6.99055 
1097 1 13.9701 24.4648 6.99487 
700 2 15.7191 24.4565 5.259 
703 1 17.4641 26.2144 5.23992 
704 2 19.2248 24.4797 5.23959 
1098 2 15.7309 26.2089 6.99041 
1101 2 17.4786 24.4687 6.97432 
1102 1 19.2205 26.2049 6.97987 
707 1 20.9855 26.2051 5.2427 
708 2 22.7283 24.4712 5.24317 
1105 1 20.9774 24.4711 6.99873 
1106 2 22.7029 26.2294 6.99622 
711 1 24.4693 26.2195 5.2445 
712 1 26.2378 24.4682 5.23761 
1109 2 24.461 24.4704 6.97078 
1110 2 26.2215 26.2153 6.96771 
715 2 27.9649 26.2153 5.23209 
716 2 29.7178 24.4639 5.23404 
1113 2 27.9801 24.4563 6.99158 
1114 2 29.7141 26.2046 6.97563 
683 2 34.9234 26.1907 5.23537 
719 1 31.4686 26.2228 5.23959 
720 1 33.1782 24.45 5.24145 
1081 2 34.9192 24.4485 6.98569 
1117 1 31.4506 24.4659 6.98536 
1118 2 33.1947 26.1981 6.99125 
723 2 0.00819938 29.7034 5.24551 
724 2 1.73417 27.9445 5.23675 
727 1 3.48417 29.7073 5.24337 
1122 2 1.74108 29.707 6.98905 
1125 2 3.48922 27.9481 6.98149 
728 2 5.2333 27.9584 5.24273 
731 2 6.98705 29.7004 5.24904 
1126 2 5.24092 29.6987 6.97762 
1129 2 6.98652 27.956 7.00323 
732 2 8.74093 27.9823 5.23385 
735 2 10.4736 29.7204 5.24134 
1130 1 8.73046 29.7049 7.0119 
1133 2 10.4724 27.9673 7.00728 
736 2 12.228 27.9756 5.23504 
739 2 13.9877 29.7155 5.24637 
1134 2 12.214 29.7163 6.97951 
1137 2 13.9751 27.9556 6.98802 
740 2 15.7295 27.9663 5.25251 
743 1 17.4667 29.711 5.2337 
744 1 19.2212 27.9498 5.24308 
1138 2 15.7484 29.7061 6.99473 
1141 2 17.4842 27.9536 6.99666 
1142 1 19.1986 29.7004 6.97688 
747 1 20.9661 29.7254 5.24243 
748 1 22.7065 27.9636 5.23929 
1145 1 20.9625 27.9744 6.98342 
1146 1 22.7263 29.7086 6.97575 
751 2 24.4575 29.6976 5.23507 
752 1 26.2211 27.9704 5.23694 
1149 2 24.4575 27.9647 6.97372 
1150 2 26.2053 29.712 6.99295 
755 2 27.9681 29.711 5.24333 
756 2 29.7207 27.9698 5.24915 
1153 2 27.9674 27.9605 6.98936 
1154 2 29.7169 29.7234 7.00579 
759 2 31.4595 29.7079 5.24568 
760 1 33.2097 27.9625 5.2442 
1121 2 34.9422 27.9573 6.99594 
1157 2 31.4693 27.9527 7.00174 
1158 2 33.2065 29.6998 6.9884 
764 2 1.74572 31.4527 5.24731 
767 2 3.48991 33.1986 5.23589 
1162 2 1.7326 33.212 6.99496 
1165 2 3.49473 31.4615 6.97712 
768 2 5.23618 31.4574 5.24684 
771 2 6.98652 33.2057 5.24833 
1166 2 5.244 33.2136 6.99437 
1169 1 6.98372 31.447 6.98948 
412 2 8.72668 34.9391 5.25868 
772 1 8.72992 31.4488 5.25124 
775 2 10.4939 33.1904 5.24854 
813 1 10.4921 34.9383 6.98413 
1170 2 8.73678 33.2003 6.99922 
1173 2 10.4655 31.4614 6.99657 
416 2 12.2386 34.9346 5.25455 
776 1 12.2258 31.4569 5.24395 
779 1 13.9755 33.1919 5.24713 
817 2 13.9601 34.9415 6.99694 
1174 1 12.2339 33.186 6.99598 
1177 2 13.9763 31.4582 6.98498 
780 1 15.7275 31.4535 5.24709 
783 2 17.4484 33.2013 5.26642 
784 2 19.2006 31.4472 5.2522 
1178 2 15.7163 33.2011 7.00523 
1181 2 17.4796 31.4498 7.00024 
1182 1 19.2121 33.2012 6.98357 
787 2 20.9616 33.2026 5.23932 
788 2 22.7154 31.4512 5.24261 
825 2 20.9735 34.9407 6.98037 
1185 2 20.9527 31.4395 6.989 
1186 2 22.7035 33.1989 6.99507 
791 2 24.4742 33.2102 5.2392 
792 2 26.2274 31.4576 5.24321 
1189 2 24.4632 31.4595 6.98937 
1190 2 26.2312 33.218 6.98151 
795 2 27.9819 33.2155 5.24181 
796 1 29.7131 31.4585 5.23314 
1193 2 27.9774 31.4655 6.9943 
1194 1 29.7138 33.1962 6.99245 
763 2 34.929 33.2077 5.24173 
799 1 31.4591 33.192 5.23442 
800 2 33.1953 31.4515 5.2286 
1161 1 34.9322 31.4479 6.99416 
1197 2 31.4549 31.4561 6.98175 
1198 2 33.1942 33.2106 6.97447 
803 1 0.00412575 1.74435 8.72352 
804 1 1.74013 0.000526283 8.73151 
807 2 3.49939 1.74884 8.73486 
844 2 1.73773 3.48952 8.73912 
1201 2 0.00736254 0.0210675 10.4631 
1202 1 1.74097 1.7606 10.4683 
1205 2 3.48353 0.0145618 10.4683 
1241 1 0.000496893 3.49529 10.477 
1245 1 3.50353 3.48211 10.494 
808 1 5.23617 0.00582948 8.72819 
811 1 6.972 1.73996 8.72696 
848 1 5.24612 3.49785 8.73618 
1206 1 5.24114 1.74146 10.4823 
1209 2 6.9839 0.0107901 10.4775 
1249 1 6.97826 3.47613 10.4821 
812 1 8.74631 0.00551157 8.72669 
815 2 10.4741 1.74347 8.73493 
852 2 8.7293 3.48783 8.75133 
1210 2 8.72166 1.73994 10.4791 
1253 1 10.4865 3.47028 10.4781 
819 2 13.9836 1.73415 8.7308 
856 1 12.231 3.48849 8.72944 
1214 2 12.2322 1.74215 10.4785 
1257 2 13.9701 3.50122 10.4773 
823 1 17.4805 1.75728 8.76008 
860 2 15.7158 3.491 8.76047 
864 2 19.2381 3.48583 8.75561 
1218 2 15.7368 1.73177 10.4924 
1222 1 19.2301 1.74365 10.502 
1261 2 17.4758 3.48718 10.502 
827 2 20.966 1.73668 8.73138 
868 1 22.6998 3.49746 8.7332 
1226 2 22.715 1.75863 10.4715 
1265 2 20.9837 3.49261 10.4991 
831 2 24.4513 1.74372 8.73462 
832 1 26.2201 0.0173612 8.7384 
872 2 26.1883 3.50389 8.72723 
1229 2 24.4625 0.0130434 10.4847 
1230 1 26.1932 1.76579 10.4726 
1269 1 24.4483 3.50141 10.4646 
835 2 27.9604 1.75234 8.73216 
836 2 29.7082 0.00521716 8.72378 
876 2 29.7162 3.51161 8.72874 
1233 2 27.9487 0.0285395 10.4805 
1234 1 29.6983 1.75758 10.4783 
1273 2 27.9482 3.50401 10.4773 
839 2 31.4547 1.76896 8.73617 
840 1 33.1857 0.00998662 8.73775 
880 1 33.1936 3.51419 8.73716 
1237 2 31.453 0.0348849 10.4809 
1238 1 33.2059 1.7677 10.4637 
1277 1 31.4432 3.48687 10.4814 
843 1 0.00852644 5.2461 8.7321 
847 2 3.49848 5.23254 8.74473 
884 2 1.75935 6.97785 8.73207 
1242 2 1.74834 5.22104 10.4986 
1285 2 3.50449 6.97532 10.4766 
851 1 6.97528 5.24312 8.75571 
888 1 5.24162 6.98097 8.73743 
1246 1 5.24189 5.24324 10.4869 
1289 1 6.98598 6.99196 10.5006 
855 1 10.4924 5.23653 8.74534 
892 2 8.72941 6.96552 8.74269 
1250 1 8.74077 5.22891 10.49 