ITEM: TIMESTEP
1000
ITEM: NUMBER OF ATOMS
4001
ITEM: BOX BOUNDS pp pp pp
0.0000000000000000e+00 3.4945000000000000e+01
0.0000000000000000e+00 3.4945000000000000e+01
0.0000000000000000e+00 3.4945000000000000e+01
ITEM: ATOMS id type x y z 
2 1 1.72686 1.75167 0.00648109 
4 2 1.729 0.00869915 1.73972 
7 1 3.49148 1.7365 1.74157 
41 1 0.00876126 3.50702 0.00241765 
44 2 1.7502 3.49042 1.74432 
45 2 3.48612 3.49152 0.0129265 
402 2 1.75206 1.75163 3.4769 
445 2 3.50281 3.49197 3.47988 
6 2 5.23378 1.74337 0.00531412 
8 2 5.25199 0.0103605 1.75453 
11 1 6.99661 1.74834 1.74319 
48 2 5.24027 3.48289 1.74369 
406 1 5.24238 1.74651 3.49221 
409 2 6.99539 0.0209828 3.502 
449 1 6.9727 3.48389 3.49794 
10 2 8.75272 1.7509 0.0062938 
12 1 8.74656 0.00864328 1.74618 
15 2 10.4901 1.73976 1.74472 
52 2 8.74036 3.48787 1.75806 
53 1 10.4889 3.49353 0.00635444 
410 2 8.72809 1.75166 3.50448 
413 2 10.4753 0.00697757 3.50451 
453 1 10.4853 3.47948 3.49867 
19 1 13.974 1.7388 1.74793 
56 2 12.2327 3.47638 1.75689 
57 2 13.9649 3.4791 0.0158112 
414 1 12.2291 1.74554 3.50119 
417 2 13.9783 0.0116956 3.50563 
457 1 13.9892 3.47142 3.4982 
18 2 15.7172 1.74983 0.0100687 
23 2 17.4713 1.74131 1.76166 
24 1 19.2072 0.00604417 1.75747 
60 2 15.7137 3.49121 1.75402 
64 2 19.2121 3.47007 1.74364 
418 1 15.7201 1.73269 3.50953 
421 2 17.4732 0.00360153 3.51562 
422 1 19.2158 1.74321 3.50537 
461 2 17.4655 3.48463 3.50515 
27 1 20.9544 1.73259 1.72936 
28 1 22.706 0.00262527 1.75096 
68 2 22.7171 3.46422 1.73911 
425 1 20.9608 0.0154218 3.49863 
426 1 22.7098 1.74501 3.49426 
465 2 20.9575 3.47208 3.499 
29 2 24.465 0.0107733 0.00197593 
31 1 24.4694 1.73997 1.74261 
32 1 26.2199 0.00266041 1.75673 
72 1 26.2085 3.5036 1.74678 
429 1 24.4758 0.0166024 3.48935 
430 1 26.2185 1.76461 3.49345 
469 2 24.4539 3.48267 3.48664 
34 2 29.6933 1.75183 0.00136055 
35 1 27.9568 1.74429 1.74307 
73 1 27.9578 3.47835 0.000625941 
76 1 29.7082 3.49188 1.75611 
433 1 27.9642 0.00658808 3.49186 
434 1 29.7214 1.75624 3.48474 
473 2 27.967 3.48666 3.48322 
3 1 34.9337 1.75381 1.74501 
39 1 31.4529 1.76045 1.7182 
80 2 33.1878 3.50149 1.72847 
401 2 34.9323 0.00251992 3.48488 
438 2 33.1734 1.74206 3.47862 
441 2 34.9305 3.49475 3.48701 
477 1 31.4569 3.49744 3.49131 
43 2 0.0108633 5.24323 1.73274 
47 1 3.5073 5.25354 1.7483 
84 2 1.75894 6.99158 1.74128 
442 2 1.75037 5.23817 3.48453 
481 2 0.00744893 6.99733 3.48846 
485 2 3.50547 6.98417 3.50214 
51 2 6.98309 5.22113 1.75248 
88 2 5.26119 6.97873 1.74816 
446 2 5.24559 5.23596 3.48729 
489 2 6.99231 6.9797 3.5175 
50 2 8.73242 5.23644 0.0112456 
55 2 10.497 5.23502 1.7654 
92 1 8.73427 6.97162 1.76488 
450 2 8.73936 5.22354 3.49804 
493 2 10.4935 6.97879 3.509 
54 2 12.2393 5.22317 0.00472277 
59 1 13.9771 5.23338 1.7443 
96 2 12.2441 6.99424 1.73652 
97 2 13.9932 6.97486 0.0112308 
454 2 12.2502 5.21872 3.50659 
497 1 13.9807 6.99164 3.48629 
58 1 15.7109 5.23886 0.00774559 
63 2 17.4559 5.23533 1.74497 
100 1 15.7256 6.97573 1.76362 
104 2 19.1921 6.97989 1.73099 
458 2 15.7149 5.2284 3.50195 
462 1 19.2163 5.23606 3.48648 
501 2 17.4679 6.97854 3.49606 
67 2 20.9537 5.22223 1.75156 
108 2 22.7103 6.98526 1.73839 
466 2 22.6884 5.22665 3.49246 
505 2 20.9457 6.99256 3.482 
71 2 24.4559 5.23107 1.74404 
112 2 26.2246 6.97237 1.74355 
470 2 26.2137 5.23288 3.50104 
509 2 24.4699 6.99126 3.47818 
74 1 29.7076 5.23423 0.00505681 
75 2 27.9707 5.23802 1.74733 
116 1 29.6991 6.99579 1.75216 
474 2 29.7036 5.23496 3.49296 
513 1 27.954 6.98628 3.49671 
79 2 31.4409 5.24508 1.74877 
120 2 33.189 6.99993 1.7304 
478 2 33.1965 5.25084 3.49028 
517 2 31.4394 6.98854 3.49424 
83 2 0.000701706 8.73504 1.73595 
87 2 3.52035 8.71923 1.74393 
124 2 1.7444 10.48 1.73858 
482 2 1.77039 8.7449 3.50019 
521 1 0.00898961 10.4657 3.49055 
525 2 3.50563 10.4841 3.50074 
91 2 6.98829 8.71734 1.75736 
128 2 5.24679 10.4783 1.74461 
129 2 7.00004 10.4816 0.0114412 
486 1 5.25205 8.71531 3.50478 
529 1 6.97417 10.4675 3.47929 
95 2 10.4897 8.73153 1.73473 
132 2 8.75441 10.4624 1.74794 
490 2 8.72199 8.73369 3.50221 
533 1 10.4815 10.4595 3.49287 
99 1 13.9847 8.73882 1.73456 
136 1 12.222 10.4793 1.75063 
137 2 13.9578 10.4825 0.00462755 
494 2 12.2413 8.73251 3.4911 
537 2 13.9647 10.475 3.50801 
103 2 17.4502 8.72874 1.73772 
140 2 15.7064 10.483 1.75485 
144 2 19.2274 10.4763 1.73683 
498 2 15.7216 8.73402 3.50514 
502 1 19.2057 8.73439 3.47247 
541 2 17.4798 10.4927 3.49016 
107 2 20.9551 8.74169 1.7292 
148 1 22.7021 10.471 1.73959 
506 2 22.6985 8.73691 3.48315 
545 1 20.9601 10.4638 3.49907 
111 2 24.4661 8.72772 1.73075 
152 2 26.1989 10.4766 1.73558 
510 2 26.2228 8.73583 3.50198 
549 2 24.4493 10.4722 3.4721 
114 1 29.7001 8.72862 0.00687768 
115 1 27.947 8.73482 1.72492 
156 2 29.7143 10.463 1.73254 
514 2 29.6872 8.73744 3.46603 
553 1 27.951 10.4878 3.49193 
119 1 31.4634 8.73749 1.73438 
160 1 33.2152 10.4782 1.74004 
518 2 33.2024 8.73799 3.48397 
557 2 31.4677 10.4701 3.48353 
123 2 0.00270122 12.2156 1.74436 
127 2 3.50082 12.2401 1.73556 
161 2 0.00452518 13.9588 0.010036 
164 2 1.73885 13.9774 1.75076 
522 1 1.7337 12.2256 3.49543 
565 2 3.49178 13.9678 3.49572 
131 2 6.99085 12.2393 1.75912 
168 2 5.24627 13.9801 1.74766 
169 2 6.9971 13.9949 0.0140364 
526 1 5.2458 12.2295 3.50337 
569 1 6.97362 13.9809 3.49883 
135 1 10.4716 12.2202 1.7527 
172 2 8.74306 13.9816 1.76292 
530 2 8.72484 12.2256 3.50205 
573 1 10.4855 13.9826 3.50031 
139 2 13.9672 12.2308 1.75522 
176 2 12.2297 13.965 1.75177 
177 2 13.9768 13.9901 0.0154994 
534 2 12.2132 12.2318 3.49611 
577 1 13.9773 13.9692 3.50747 
143 2 17.4667 12.2437 1.74303 
180 1 15.7254 13.9793 1.74508 
184 2 19.2007 13.9955 1.7449 
538 2 15.7269 12.2398 3.50689 
542 2 19.2332 12.2285 3.49012 
581 1 17.4713 13.98 3.50264 
146 2 22.7172 12.2332 0.0170845 
147 2 20.9688 12.2167 1.76332 
185 2 20.9513 13.9689 0.0167694 
188 2 22.7076 13.9908 1.7652 
546 1 22.7059 12.218 3.49603 
585 1 20.9715 13.9902 3.49719 
150 1 26.2029 12.2138 0.00680019 
151 2 24.45 12.221 1.74608 
189 2 24.4705 13.9775 0.00467484 
192 2 26.2106 13.9905 1.74972 
550 2 26.1989 12.2377 3.48657 
589 2 24.4446 13.9896 3.50285 
154 1 29.707 12.2226 0.0135768 
155 2 27.9544 12.2157 1.74652 
193 1 27.9503 13.9719 0.00742094 
196 2 29.7151 13.9723 1.75235 
554 2 29.7059 12.2252 3.482 
593 2 27.9616 13.9631 3.49482 
158 1 33.2023 12.216 0.00640435 
159 2 31.4668 12.2088 1.74049 
197 2 31.4458 13.955 0.00442068 
200 1 33.2033 13.9662 1.73479 
558 2 33.224 12.2124 3.48791 
561 1 34.9417 13.9714 3.48445 
597 2 31.4709 13.9712 3.48837 
162 1 1.74162 15.7339 0.0102852 
163 2 0.00355213 15.7211 1.75355 
167 1 3.48846 15.7131 1.75879 
201 2 0.00343506 17.4758 0.000995998 
202 2 1.74372 19.2075 0.00486161 
203 2 0.00458433 19.2279 1.75649 
204 1 1.75162 17.4624 1.7461 
205 1 3.49228 17.4687 0.00521735 
207 1 3.4715 19.2264 1.74977 
562 2 1.74514 15.7077 3.48492 
601 2 0.00576428 17.4702 3.50556 
602 2 1.73922 19.2313 3.48954 
605 1 3.47993 17.4787 3.49798 
166 1 5.24685 15.7413 0.0113796 
171 1 6.98895 15.7276 1.76921 
206 2 5.22523 19.2124 0.00144096 
208 2 5.21276 17.4797 1.76786 
209 2 6.97555 17.4699 0.00978196 
211 2 6.96649 19.2239 1.75323 
566 2 5.2446 15.7311 3.49116 
606 1 5.21034 19.2375 3.49439 
609 1 6.98092 17.4944 3.49224 
175 2 10.4793 15.7077 1.73826 
210 2 8.73165 19.2183 0.0158755 
212 2 8.72886 17.4698 1.7603 
215 2 10.4823 19.219 1.76389 
570 1 8.73813 15.722 3.49907 
610 1 8.72165 19.2246 3.49271 
613 2 10.4784 17.4693 3.49269 
179 1 13.9757 15.7254 1.75586 
214 2 12.2396 19.2219 0.0160408 
216 2 12.2495 17.4711 1.75655 
219 2 13.9945 19.2014 1.7621 
574 2 12.2284 15.7229 3.50011 
614 1 12.2347 19.2191 3.4986 
617 1 13.9742 17.4758 3.51082 
178 2 15.7227 15.7433 0.00747224 
183 2 17.4592 15.7345 1.74858 
220 1 15.7143 17.4783 1.7465 
222 2 19.2126 19.2175 0.00227722 
223 1 17.4659 19.2135 1.74006 
224 1 19.2128 17.474 1.75248 
578 2 15.7128 15.719 3.49286 
582 2 19.2251 15.7345 3.50986 
618 1 15.7388 19.2134 3.50711 
621 2 17.4632 17.474 3.48993 
622 2 19.2125 19.2132 3.48663 
187 2 20.9704 15.7461 1.76232 
225 2 20.9666 17.4783 0.0119627 
226 2 22.7389 19.2214 0.005512 
227 1 20.9721 19.2114 1.75054 
228 1 22.725 17.4712 1.74522 
586 1 22.7089 15.7401 3.50495 
625 2 20.9796 17.4809 3.50418 
626 2 22.7362 19.2108 3.49919 
191 2 24.4655 15.7432 1.74554 
230 1 26.2116 19.2193 0.00503697 
231 1 24.4788 19.2077 1.75743 
232 1 26.2259 17.4661 1.75334 
590 1 26.2291 15.7147 3.5132 
629 1 24.4813 17.464 3.49167 
630 1 26.2209 19.2242 3.5031 
195 2 27.9558 15.7316 1.74254 
235 1 27.9599 19.2131 1.74356 
236 2 29.6978 17.4711 1.75536 
594 2 29.707 15.7197 3.50887 
633 2 27.9546 17.4772 3.49728 
634 2 29.7006 19.2235 3.50407 
199 2 31.461 15.7204 1.74296 
239 2 31.4428 19.2264 1.74934 
240 2 33.204 17.4728 1.74246 
598 2 33.2067 15.7291 3.49924 
637 2 31.4586 17.4744 3.50391 
638 1 33.2052 19.2102 3.48925 
242 2 1.72265 22.7254 0.00190232 
244 1 1.73046 20.9716 1.73609 
247 2 3.49491 22.7035 1.75266 
642 2 1.72944 22.7263 3.48656 
645 2 3.47443 20.9769 3.49051 
248 1 5.2422 20.9627 1.73131 
251 1 6.98876 22.7119 1.73951 
646 2 5.25284 22.7045 3.49094 
649 2 6.97911 20.9679 3.49812 
250 2 8.73757 22.7168 0.017127 
252 2 8.71974 20.9785 1.75961 
255 2 10.4655 22.7225 1.75222 
650 1 8.72115 22.7254 3.49175 
653 2 10.4717 20.9594 3.49796 
254 2 12.2353 22.7212 0.0117381 
256 2 12.2329 20.9683 1.75663 
257 2 13.9922 20.9592 0.0116885 
259 2 13.9807 22.7228 1.77242 
654 2 12.2199 22.7167 3.49889 
657 2 13.9898 20.9542 3.50296 
258 2 15.7338 22.712 0.00245275 
260 2 15.7432 20.9477 1.74492 
263 2 17.48 22.7163 1.75582 
264 2 19.2181 20.9463 1.74693 
658 2 15.7381 22.7004 3.51469 
661 1 17.4757 20.9554 3.50391 
662 2 19.2304 22.7143 3.49672 
265 2 20.9722 20.9781 0.0140842 
266 1 22.7081 22.7089 0.0128238 
267 2 20.9808 22.714 1.75457 
268 2 22.733 20.9566 1.75575 
665 1 20.9802 20.9439 3.49455 
666 1 22.7102 22.725 3.50532 
269 1 24.48 20.9746 0.00418449 
270 1 26.2219 22.7251 0.015221 
271 1 24.4594 22.7251 1.76376 
272 1 26.2178 20.9771 1.76334 
669 2 24.4594 20.9732 3.48624 
670 2 26.223 22.7245 3.4916 
273 2 27.942 20.9613 0.00407479 
274 2 29.7136 22.716 0.00424199 
275 2 27.97 22.7152 1.75995 
276 2 29.7079 20.9706 1.74071 
673 2 27.9668 20.9602 3.50112 
674 1 29.7157 22.7084 3.49483 
243 2 34.9217 22.718 1.73679 
279 1 31.4601 22.7107 1.74557 
280 1 33.1855 20.9637 1.74014 
641 1 34.9364 20.9681 3.4895 
677 2 31.462 20.9626 3.49674 
678 2 33.1859 22.7102 3.48365 
284 1 1.74811 24.47 1.74924 
285 2 3.48448 24.467 0.000691651 
287 2 3.50149 26.2031 1.75411 
682 1 1.73439 26.1915 3.49247 
685 1 3.50799 24.4545 3.4934 
286 1 5.2459 26.1881 0.00732919 
288 2 5.24847 24.4518 1.7442 
289 2 6.98843 24.4715 0.0126662 
291 1 6.98188 26.2268 1.74879 
686 2 5.24138 26.2173 3.49306 
689 1 6.99102 24.4709 3.48548 
290 2 8.71869 26.2358 0.0129074 
292 1 8.72981 24.4729 1.74789 
295 2 10.4744 26.229 1.74677 
690 2 8.73478 26.2255 3.48132 
693 2 10.4692 24.4702 3.49326 
294 2 12.246 26.2217 0.0070483 
296 2 12.2167 24.4819 1.75426 
297 2 13.9933 24.4762 0.0102115 
299 2 13.987 26.2226 1.76425 
694 1 12.2312 26.2124 3.50014 
697 2 13.9832 24.4734 3.52165 
298 1 15.7358 26.204 0.00353923 
300 2 15.7433 24.4655 1.75118 
303 1 17.4691 26.2148 1.73623 
304 2 19.2155 24.4821 1.74058 
698 2 15.7159 26.2156 3.49956 
701 1 17.4638 24.4716 3.51289 
702 2 19.2107 26.2111 3.50576 
306 1 22.7086 26.2302 0.00637489 
307 2 20.9598 26.2233 1.75246 
308 2 22.7142 24.4662 1.75321 
705 1 20.974 24.4811 3.4923 
706 2 22.7342 26.2022 3.49561 
309 2 24.4448 24.4551 0.0121657 
310 2 26.2027 26.2028 0.00429491 
311 2 24.4777 26.2066 1.74953 
312 2 26.2216 24.4621 1.7638 
709 1 24.4895 24.4764 3.5011 
710 1 26.2179 26.2277 3.50254 
313 2 27.9659 24.4716 0.00288757 
314 2 29.7161 26.2268 0.000962185 
315 1 27.9643 26.2179 1.74691 
316 2 29.7196 24.4656 1.75953 
713 2 27.9689 24.4758 3.49735 
714 1 29.7192 26.2245 3.49922 
283 2 34.9331 26.1919 1.7308 
319 2 31.4462 26.2113 1.73841 
320 1 33.1746 24.4619 1.7295 
681 1 34.9135 24.4692 3.48206 
717 2 31.4568 24.4657 3.49952 
718 2 33.1892 26.2192 3.48257 
324 2 1.73844 27.9352 1.74242 
327 2 3.49448 29.6967 1.75518 
722 2 1.7519 29.6941 3.49731 
725 2 3.48253 27.9571 3.49183 
326 1 5.22815 29.7061 0.00356767 
328 2 5.24102 27.9609 1.73897 
331 2 6.98124 29.6985 1.74238 
726 1 5.22737 29.7091 3.50775 
729 2 6.98466 27.9642 3.48961 
332 1 8.72141 27.976 1.74183 
333 2 10.4958 27.9813 0.0125129 
335 2 10.4801 29.7128 1.75168 
730 1 8.73011 29.7113 3.49757 
733 2 10.5007 27.9762 3.47702 
334 2 12.2361 29.7212 0.00960287 
336 1 12.252 27.9672 1.74866 
339 2 13.9789 29.7105 1.74276 
734 1 12.2472 29.7178 3.49752 
737 1 13.9757 27.9673 3.50952 
338 1 15.7223 29.7092 0.012698 
340 2 15.7226 27.9577 1.73377 
342 1 19.2313 29.7044 0.00712614 
343 2 17.487 29.6938 1.75798 
344 1 19.2171 27.957 1.75098 
738 2 15.725 29.7104 3.49446 
741 2 17.4653 27.9517 3.4915 
742 2 19.2209 29.7064 3.50044 
345 2 20.9605 27.9731 0.00665977 
346 2 22.6967 29.7152 0.00492183 
347 1 20.9668 29.7195 1.74931 
348 2 22.7038 27.9674 1.76248 
745 2 20.9632 27.958 3.5097 
746 2 22.707 29.7176 3.50313 
349 2 24.4594 27.9576 0.00471964 
351 2 24.4613 29.7138 1.75136 
352 2 26.2234 27.9673 1.74842 
749 2 24.4689 27.9503 3.50391 
750 2 26.2188 29.7175 3.49176 
353 2 27.9653 27.967 0.00281693 
355 1 27.96 29.7236 1.74889 
356 2 29.7076 27.9688 1.74824 
753 2 27.9658 27.9631 3.48892 
754 2 29.7157 29.7199 3.48295 
323 2 34.9404 29.7069 1.74665 
357 1 31.4511 27.968 0.0117057 
359 2 31.4637 29.7148 1.74047 
360 1 33.1964 27.9589 1.73398 
721 2 34.9373 27.9427 3.48818 
757 2 31.4669 27.9713 3.49111 
758 1 33.2095 29.7043 3.50452 
363 1 0.00693998 33.1806 1.74002 
364 2 1.7391 31.4482 1.74644 
365 2 3.49725 31.4506 0.0120827 
367 2 3.47981 33.2115 1.74439 
405 2 3.49186 34.9408 3.49973 
762 2 1.73355 33.1978 3.49281 
765 1 3.48774 31.4547 3.48599 
366 1 5.24257 33.2125 0.0107085 
368 2 5.2378 31.4547 1.75025 
369 2 6.9859 31.4508 0.00342533 
371 2 7.00208 33.219 1.74705 
766 2 5.23732 33.1975 3.48079 
769 2 6.97583 31.4434 3.5141 
13 2 10.4843 34.9366 0.00731097 
370 2 8.74105 33.1841 0.0125963 
372 2 8.73194 31.4431 1.76051 
373 1 10.4734 31.4536 0.00679737 
375 1 10.4709 33.1833 1.76149 
770 2 8.73507 33.188 3.49651 
773 2 10.4808 31.4437 3.49982 
16 2 12.2239 34.9346 1.75291 
17 2 13.9743 34.9269 0.000390458 
374 1 12.2316 33.1969 0.0110006 
376 2 12.2298 31.457 1.75351 
379 1 13.987 33.185 1.76188 
774 2 12.2343 33.1936 3.49787 
777 2 13.9882 31.4485 3.50302 
20 2 15.7272 34.9426 1.76255 
380 2 15.7296 31.453 1.76071 
381 2 17.4764 31.4339 0.0115258 
383 2 17.4645 33.2004 1.75231 
384 2 19.2172 31.4571 1.73759 
778 2 15.7227 33.2089 3.51741 
781 1 17.475 31.4608 3.50781 
782 2 19.2094 33.2153 3.49814 
25 2 20.9585 34.9374 0.000832417 
385 1 20.9667 31.4626 0.000471916 
387 2 20.9587 33.2126 1.74313 
388 2 22.7084 31.4735 1.74513 
785 2 20.9543 31.471 3.48741 
786 2 22.7246 33.2268 3.48964 
391 2 24.4687 33.223 1.74634 
392 2 26.2158 31.474 1.73814 
789 2 24.4677 31.4737 3.49532 
790 1 26.2162 33.1976 3.50552 
36 1 29.7188 34.9455 1.74791 
395 2 27.9736 33.2139 1.73845 
396 2 29.7181 31.4632 1.73666 
793 2 27.9761 31.4712 3.492 
794 1 29.7231 33.2006 3.48944 
1 1 34.9392 34.9348 0.00636479 
37 2 31.4627 34.9415 0.00108259 
40 2 33.1944 34.9293 1.7379 
398 2 33.1992 33.1736 0.00168884 
399 1 31.4606 33.1785 1.7369 
400 1 33.2106 31.4481 1.75383 
437 1 31.4509 34.9453 3.47995 
761 2 34.9435 31.4543 3.50213 
797 1 31.4626 31.4489 3.48765 
798 1 33.2086 33.2065 3.48892 
404 2 1.74037 0.0145836 5.25658 
407 2 3.5029 1.74778 5.22621 
444 1 1.74359 3.49113 5.22401 
802 2 1.74739 1.74692 6.99008 
805 1 3.49902 0.0108742 6.98543 
845 2 3.4811 3.49246 6.99135 
408 1 5.23997 0.0014437 5.22447 
411 1 6.98345 1.73996 5.25363 
448 2 5.23572 3.48613 5.24809 
806 1 5.23362 1.74429 6.98136 
809 1 6.98449 0.00446905 6.99318 
849 2 6.98373 3.48512 6.99874 
415 2 10.4885 1.75218 5.25365 
452 2 8.73338 3.48673 5.23807 
810 1 8.73523 1.7527 6.99154 
853 2 10.4928 3.49328 6.99656 
419 1 13.9617 1.74135 5.26138 
456 2 12.242 3.48531 5.2533 
814 1 12.2248 1.74469 7.00746 
857 1 13.9884 3.46944 7.00225 
420 1 15.7157 0.0162048 5.26409 
423 1 17.476 1.75383 5.25074 
424 2 19.2108 0.00741602 5.24082 
460 2 15.7124 3.47417 5.25232 
464 2 19.2348 3.49319 5.24366 
818 2 15.7296 1.75093 6.99339 
821 2 17.4769 0.00880661 7.00502 
822 2 19.2215 1.75012 6.99523 
861 2 17.4656 3.49891 7.00755 
427 1 20.9753 1.73582 5.25363 
428 2 22.7276 0.0176044 5.23756 
468 1 22.6979 3.49306 5.23036 
826 1 22.724 1.74439 6.99574 
865 2 20.98 3.49091 6.98178 
431 2 24.4603 1.75482 5.22958 
432 1 26.2213 0.00940112 5.23721 
472 2 26.2023 3.4994 5.23685 
829 2 24.4646 0.00120609 6.9878 
830 2 26.2127 1.74868 6.98235 
869 2 24.4397 3.50292 6.99237 
435 1 27.9582 1.7499 5.23786 
436 2 29.7187 0.00443622 5.22742 
476 2 29.7089 3.49135 5.2337 
833 2 27.9679 0.0129957 6.97926 
834 1 29.7171 1.75712 6.98217 
873 2 27.967 3.50049 6.97895 
403 2 34.9327 1.75138 5.23817 
439 1 31.4598 1.75507 5.24581 
440 1 33.1871 0.0089682 5.22198 
480 2 33.2035 3.48844 5.24503 
801 1 34.9267 0.0089773 6.98539 
837 2 31.4602 0.00311344 6.9692 
838 2 33.1906 1.74882 7.00085 
841 1 34.9409 3.49272 6.98459 
877 2 31.4566 3.51605 6.98799 
443 2 0.000821756 5.23337 5.24488 
447 2 3.49319 5.23276 5.22861 
484 2 1.75816 6.97753 5.24194 
842 2 1.74319 5.23646 6.98001 
881 2 0.00294616 6.97711 6.98654 
885 1 3.49061 6.97113 6.98296 
451 2 6.99478 5.22871 5.25338 
488 1 5.24417 6.97632 5.24179 
846 2 5.23894 5.24456 7.00283 
889 1 6.99132 6.96561 6.98823 
455 1 10.4824 5.22881 5.24185 
492 2 8.73086 6.98526 5.24594 
850 2 8.74164 5.22531 7.00806 
893 1 10.4742 6.96994 6.99061 
459 1 13.987 5.23461 5.25961 
496 2 12.2411 6.97764 5.25855 
854 2 12.2381 5.23012 6.99485 
897 1 13.9796 6.98635 6.99775 
463 2 17.4788 5.22572 5.26199 
500 2 15.7128 6.9899 5.25306 
504 2 19.2154 6.98303 5.24282 
858 1 15.7128 5.23128 7.00061 
862 1 19.2344 5.22555 7.00382 
901 1 17.4887 6.98355 6.98941 
467 1 20.9575 5.25236 5.24081 
508 2 22.7214 6.97568 5.24249 
866 2 22.6941 5.23981 6.98777 
905 2 20.9533 6.99148 6.98914 
471 2 24.4544 5.25221 5.23515 
512 1 26.2119 7.00023 5.22763 
870 2 26.2187 5.26379 6.97871 
909 2 24.4683 7.00416 6.98687 
475 1 27.9557 5.23513 5.23413 
516 2 29.6902 6.98335 5.2355 
874 1 29.7062 5.25784 6.97924 
913 2 27.9605 6.99861 6.97784 
479 2 31.4455 5.23927 5.24756 
520 2 33.1956 7.00314 5.23895 
878 2 33.1918 5.24963 6.99617 
917 1 31.451 6.99966 6.97774 
483 2 0.0081892 8.73804 5.23842 
487 2 3.50882 8.72238 5.25891 
524 2 1.73743 10.4829 5.24394 
882 1 1.73794 8.7213 6.99044 
925 1 3.49003 10.4752 6.98213 
491 1 6.98229 8.73947 5.25233 
528 2 5.25405 10.4674 5.25688 
886 1 5.24901 8.71186 6.99668 
929 1 6.97753 10.4873 7.00208 
495 2 10.4789 8.72996 5.25574 
532 1 8.72436 10.4826 5.24605 
890 2 8.72233 8.74253 6.98533 
933 1 10.4844 10.4807 7.00261 
499 1 13.9736 8.74161 5.25457 
536 2 12.223 10.4837 5.24424 
894 2 12.2378 8.73209 6.99845 
937 1 13.9796 10.4951 6.99231 
503 2 17.4697 8.72959 5.24974 
540 1 15.7324 10.4714 5.24831 
544 2 19.2112 10.472 5.23154 
898 1 15.7097 8.73481 6.98447 
902 1 19.2344 8.74714 6.98694 
941 2 17.4668 10.4638 6.9864 
507 2 20.9652 8.72901 5.23016 
548 2 22.711 10.4858 5.21982 
906 2 22.713 8.73085 6.99049 
945 2 20.9675 10.4807 6.96732 
511 1 24.4443 8.73418 5.22501 
552 2 26.2136 10.4783 5.22971 
910 1 26.2144 8.73921 6.9626 
949 2 24.4604 10.4698 6.98797 
515 1 27.9721 8.73538 5.23544 
556 2 29.7097 10.4935 5.22362 
914 2 29.7013 8.7279 6.99471 
953 2 27.975 10.4733 6.965 
519 2 31.4364 8.73978 5.23036 
560 1 33.2026 10.4642 5.24092 
918 2 33.2001 8.74333 6.99219 
921 2 34.9409 10.4822 6.98547 
957 1 31.4436 10.4748 6.98197 
527 2 3.48706 12.2227 5.23928 
564 1 1.74652 13.962 5.23563 
922 2 1.74387 12.2256 6.97651 
965 2 3.48221 13.9692 6.99466 
531 2 6.98164 12.2191 5.2492 
568 2 5.22893 13.9829 5.25158 
926 1 5.23414 12.2352 6.99663 
969 1 6.97856 13.9878 6.98956 
535 2 10.4747 12.2137 5.23071 
572 2 8.73293 13.967 5.23597 
930 1 8.74131 12.2251 6.99062 
973 2 10.465 13.9664 6.97329 
539 2 13.9779 12.2259 5.25252 
576 1 12.2131 13.9802 5.24903 
934 2 12.2137 12.2241 6.99191 
977 2 13.9715 13.9625 6.97975 
543 2 17.4787 12.2425 5.24331 
580 1 15.729 13.9784 5.25796 
584 2 19.2241 13.9956 5.2299 
938 2 15.7278 12.2142 6.9863 
942 2 19.2249 12.2282 6.98484 
981 2 17.4784 13.9902 6.98259 
547 1 20.9564 12.2207 5.22489 
588 1 22.7023 13.9688 5.24112 
946 2 22.7132 12.2229 6.96728 
985 2 20.9642 13.9925 6.96644 
551 2 24.4557 12.2205 5.24073 
592 1 26.2043 13.9607 5.23474 
950 2 26.2111 12.2178 6.9801 
989 2 24.4682 13.9731 6.98838 
555 1 27.9637 12.2394 5.23008 
596 1 29.724 13.9593 5.23849 
954 2 29.7181 12.2219 6.97603 
993 2 27.9579 13.9572 6.97371 
523 1 34.9426 12.2158 5.23803 
559 2 31.4641 12.2142 5.23514 
600 2 33.2149 13.9695 5.23189 
958 1 33.1972 12.2196 6.97852 
961 1 34.9443 13.9731 6.97845 
997 2 31.473 13.9607 6.98701 
563 1 0.00598888 15.7153 5.23483 
567 2 3.47749 15.7247 5.22727 
604 2 1.73431 17.4731 5.23272 
607 2 3.4866 19.2383 5.22928 
962 2 1.73441 15.7112 6.98316 
1001 1 0.00190581 17.4735 6.99696 
1002 2 1.72986 19.221 6.99304 
1005 2 3.47687 17.4663 6.96462 
571 2 6.97925 15.7331 5.23277 
608 1 5.2333 17.4591 5.22813 
611 1 6.96742 19.2171 5.23054 
966 1 5.21972 15.7315 6.98635 
1006 2 5.2294 19.2087 6.96109 
1009 2 6.97023 17.4578 6.97857 
575 2 10.4737 15.7321 5.24079 
612 2 8.71625 17.4919 5.23451 
615 1 10.4819 19.2093 5.22733 
970 2 8.71186 15.7153 6.98272 
1010 2 8.7212 19.221 6.98443 
1013 2 10.4663 17.4779 6.98708 
579 2 13.983 15.7104 5.24454 
616 2 12.2288 17.4693 5.24053 
619 2 13.9704 19.2283 5.23763 
974 2 12.2253 15.7236 6.98858 
1014 2 12.2211 19.2215 6.97894 
1017 2 13.9899 17.4692 6.97985 
583 1 17.4626 15.7296 5.23374 
620 2 15.7346 17.4646 5.23584 
623 2 17.4752 19.2154 5.2428 
624 1 19.2097 17.4764 5.2513 
978 2 15.7385 15.7234 6.99877 
982 1 19.2193 15.7235 6.97417 
1018 2 15.7255 19.2173 6.99719 
1021 1 17.4687 17.4667 6.99124 
1022 2 19.2319 19.198 6.99924 
587 1 20.9769 15.7439 5.23461 
627 2 20.9814 19.2049 5.24178 
628 1 22.7315 17.4813 5.25372 
986 2 22.7048 15.739 6.97147 
1025 1 20.9676 17.4676 6.99189 
1026 1 22.7238 19.2196 6.98933 
591 2 24.4544 15.719 5.23832 
631 2 24.4736 19.2156 5.23441 
632 2 26.2173 17.4561 5.22934 
990 2 26.2155 15.7076 6.98462 
1029 1 24.484 17.4671 6.9816 
1030 2 26.211 19.2179 6.97382 
595 2 27.9756 15.7052 5.24319 
635 1 27.9585 19.2105 5.24869 
636 1 29.7108 17.478 5.24615 
994 2 29.7233 15.7145 6.98174 
1033 2 27.9558 17.4674 6.97599 
1034 2 29.7159 19.2261 6.9907 
599 2 31.4623 15.7251 5.25345 
603 1 34.9415 19.2136 5.22837 
639 2 31.4632 19.2113 5.24949 
640 1 33.2096 17.4724 5.25636 
998 1 33.2124 15.717 6.9787 
1037 2 31.4686 17.4715 6.98812 
1038 2 33.2108 19.218 6.99396 
644 1 1.7275 20.9774 5.25559 
647 1 3.47779 22.7249 5.22897 
1042 2 1.7225 22.7222 6.98395 
1045 2 3.48858 20.983 6.98162 
648 1 5.23519 20.9844 5.24257 
651 1 6.99049 22.7154 5.22997 
1046 2 5.24258 22.7361 6.97625 
1049 2 6.97837 20.9746 6.98559 
652 1 8.73162 20.9623 5.23104 
655 2 10.4678 22.7059 5.239 
1050 2 8.71864 22.7135 6.97721 
1053 2 10.4727 20.9568 6.98641 
656 2 12.2134 20.9666 5.24662 
659 1 13.9672 22.7044 5.24558 
1054 2 12.2278 22.7194 6.99828 
1057 2 13.9737 20.9763 6.99142 
660 2 15.734 20.9686 5.24903 
663 1 17.4938 22.6979 5.24887 
664 2 19.2369 20.9516 5.23739 
1058 2 15.7233 22.7171 6.98868 
1061 2 17.4881 20.9562 6.99284 
1062 2 19.234 22.7249 6.98895 
667 2 20.9681 22.729 5.23001 
668 1 22.7179 20.974 5.23334 
1065 2 20.9788 20.9627 6.97874 
1066 2 22.7186 22.714 6.97708 
671 2 24.481 22.7314 5.22347 
672 2 26.2192 20.9776 5.23773 
1069 2 24.4654 20.96 6.97665 
1070 2 26.2348 22.7158 6.98465 
675 1 27.973 22.715 5.23969 
676 2 29.7069 20.9623 5.25316 
1073 2 27.9773 20.9756 6.98492 
1074 1 29.7122 22.7178 6.99088 
643 1 34.9299 22.7235 5.21975 
679 2 31.4478 22.7172 5.24739 
680 2 33.2103 20.9624 5.22859 
1041 2 34.9305 20.9644 6.97687 
1077 1 31.4578 20.9625 6.98482 
1078 1 33.2017 22.7113 6.98314 
684 2 1.72607 24.4519 5.21123 
687 2 3.50078 26.2018 5.22797 
1082 2 1.7511 26.2006 6.97547 
1085 2 3.48926 24.467 6.96496 
688 2 5.25414 24.4586 5.2278 
691 1 6.99769 26.2357 5.2289 
1086 1 5.24666 26.2025 6.97864 
1089 2 6.99074 24.4796 6.97827 
692 2 8.72284 24.4619 5.22464 
695 2 10.4796 26.2195 5.24065 
1090 2 8.71718 26.2289 6.98955 
1093 2 10.4796 24.4691 6.98901 
696 2 12.2336 24.4638 5.2457 
699 1 13.9585 26.2248 5.25127 
1094 2 12.2225 26.2142 6.99076 
1097 1 13.9704 24.4646 6.99525 
700 2 15.7192 24.4564 5.25911 
703 1 17.4642 26.2143 5.24008 
704 2 19.2248 24.4797 5.23966 
1098 2 15.7312 26.2085 6.99093 
1101 2 17.4785 24.4686 6.9744 
1102 1 19.2204 26.2045 6.9803 
707 1 20.9855 26.205 5.24291 
708 2 22.7282 24.4713 5.24326 
1105 1 20.9774 24.471 6.99892 
1106 2 22.7027 26.2292 6.99655 
711 1 24.4692 26.2195 5.24465 
712 1 26.2378 24.4684 5.23763 
1109 2 24.461 24.4704 6.97091 
1110 2 26.2213 26.2153 6.96786 
715 2 27.9648 26.2154 5.23213 
716 2 29.7178 24.4641 5.23396 
1113 2 27.9801 24.4565 6.99155 
1114 2 29.714 26.2048 6.97563 
683 2 34.9234 26.191 5.2352 
719 1 31.4685 26.223 5.23952 
720 1 33.1782 24.4503 5.24129 
1081 2 34.9192 24.4489 6.98542 
1117 1 31.4506 24.4662 6.98522 
1118 2 33.1946 26.1984 6.9911 
723 2 0.00810408 29.7036 5.24543 
724 2 1.7341 27.9448 5.2366 
727 1 3.48419 29.7076 5.24325 
1122 2 1.74103 29.7073 6.98891 
1125 2 3.48916 27.9484 6.98127 
728 2 5.23334 27.9587 5.2426 
731 2 6.98721 29.7006 5.249 
1126 2 5.24099 29.699 6.97749 
1129 2 6.98657 27.9563 7.00307 
732 2 8.7411 27.9824 5.23385 
735 2 10.4738 29.7205 5.24145 
1130 1 8.73067 29.705 7.0119 
1133 2 10.4727 27.9674 7.00737 
736 2 12.2283 27.9756 5.23522 
739 2 13.9879 29.7154 5.24663 
1134 2 12.2143 29.7162 6.97973 
1137 2 13.9755 27.9553 6.98838 
740 2 15.7297 27.9661 5.25282 
743 1 17.4668 29.7108 5.23407 
744 1 19.2212 27.9496 5.2434 
1138 2 15.7487 29.7058 6.99522 
1141 2 17.4843 27.9531 6.99726 
1142 1 19.1986 29.7 6.9774 
747 1 20.966 29.7252 5.2428 
748 1 22.7063 27.9635 5.23957 
1145 1 20.9623 27.974 6.98389 
1146 1 22.7261 29.7083 6.9762 
751 2 24.4573 29.6975 5.23537 
752 1 26.2209 27.9705 5.23711 
1149 2 24.4572 27.9645 6.97406 
1150 2 26.205 29.7119 6.99325 
755 2 27.9679 29.711 5.24346 
756 2 29.7205 27.97 5.24919 
1153 2 27.9671 27.9605 6.98951 
1154 2 29.7167 29.7235 7.00589 
759 2 31.4593 29.7081 5.24568 
760 1 33.2095 27.9628 5.24413 
1121 2 34.9421 27.9576 6.99579 
1157 2 31.4691 27.9529 7.00171 
1158 2 33.2063 29.7001 6.98835 
764 2 1.7457 31.4529 5.24724 
767 2 3.48999 33.1988 5.23585 
1162 2 1.73262 33.2121 6.9949 
1165 2 3.49479 31.4617 6.97703 
768 2 5.23632 31.4576 5.2468 
771 2 6.98676 33.2058 5.24834 
1166 2 5.24416 33.2137 6.99435 
1169 1 6.98393 31.4472 6.98946 
412 2 8.72696 34.9392 5.25877 
772 1 8.73018 31.4489 5.25129 
775 2 10.4943 33.1904 5.24868 
813 1 10.4924 34.9383 6.98429 
1170 2 8.73708 33.2003 6.99932 
1173 2 10.4658 31.4614 6.9967 
416 2 12.2389 34.9345 5.25473 
776 1 12.2261 31.4568 5.24416 
779 1 13.9757 33.1918 5.24739 
817 2 13.9604 34.9415 6.99721 
1174 1 12.2342 33.1859 6.99621 
1177 2 13.9766 31.4581 6.98531 
780 1 15.7277 31.4533 5.24742 
783 2 17.4486 33.2011 5.26676 
784 2 19.2006 31.4469 5.25261 
1178 2 15.7165 33.2009 7.00559 
1181 2 17.4797 31.4494 7.00074 
1182 1 19.2121 33.201 6.98399 
787 2 20.9615 33.2024 5.23962 
788 2 22.7152 31.451 5.24296 
825 2 20.9734 34.9405 6.98066 
1185 2 20.9526 31.4391 6.98951 
1186 2 22.7033 33.1987 6.99544 
791 2 24.474 33.2101 5.2394 
792 2 26.2271 31.4575 5.2434 
1189 2 24.4629 31.4593 6.98976 
1190 2 26.2309 33.2178 6.98171 
795 2 27.9816 33.2155 5.24192 
796 1 29.7128 31.4585 5.23321 
1193 2 27.9771 31.4654 6.99448 
1194 1 29.7135 33.1961 6.99255 
763 2 34.9289 33.2078 5.24169 
799 1 31.4589 33.1921 5.23444 
800 2 33.1951 31.4517 5.22859 
1161 1 34.9321 31.4481 6.99409 
1197 2 31.4547 31.4561 6.98179 
1198 2 33.1941 33.2106 6.97447 
803 1 0.00412052 1.74427 8.72349 
804 1 1.74016 0.000555399 8.73148 
807 2 3.49951 1.74881 8.73485 
844 2 1.73779 3.48941 8.73908 
1201 2 0.00734255 0.0210526 10.4631 
1202 1 1.74104 1.76055 10.4683 
1205 2 3.48366 0.0145983 10.4683 
1241 1 0.000536794 3.49515 10.4769 
1245 1 3.50364 3.48203 10.494 
808 1 5.23635 0.00586891 8.72819 
811 1 6.97222 1.73997 8.72702 
848 1 5.24627 3.49779 8.73617 
1206 1 5.24133 1.74146 10.4824 
1209 2 6.98415 0.0108356 10.4775 
1249 1 6.97844 3.47612 10.4821 
812 1 8.7466 0.00553902 8.7268 
815 2 10.4743 1.7435 8.73509 
852 2 8.72951 3.48782 8.7514 
1210 2 8.72191 1.73998 10.4792 
1253 1 10.4867 3.47037 10.4782 
819 2 13.9838 1.73422 8.73104 
856 1 12.2313 3.48855 8.72959 
1214 2 12.2324 1.74227 10.4787 
1257 2 13.9703 3.50148 10.4775 
823 1 17.4806 1.75735 8.76037 
860 2 15.716 3.49115 8.76067 
864 2 19.2381 3.48594 8.75579 
1218 2 15.7369 1.73192 10.4927 
1222 1 19.2301 1.74377 10.5022 
1261 2 17.4759 3.48746 10.5022 
827 2 20.9659 1.73667 8.7316 
868 1 22.6998 3.49738 8.73328 
1226 2 22.7148 1.75863 10.4717 
1265 2 20.9836 3.49277 10.4992 
831 2 24.4512 1.74357 8.73477 
832 1 26.2198 0.0171794 8.7386 
872 2 26.1882 3.50367 8.72724 
1229 2 24.4623 0.0129255 10.4849 
1230 1 26.1931 1.76563 10.4727 
1269 1 24.4483 3.50127 10.4646 
835 2 27.9603 1.75215 8.73222 
836 2 29.708 0.00508584 8.72386 
876 2 29.7162 3.51141 8.72873 
1233 2 27.9485 0.0283715 10.4806 
1234 1 29.6982 1.7574 10.4783 
1273 2 27.9481 3.50379 10.4773 
839 2 31.4546 1.76881 8.73617 
840 1 33.1856 0.00993923 8.73774 
880 1 33.1936 3.51402 8.73711 
1237 2 31.4529 0.0347676 10.4809 
1238 1 33.2058 1.76758 10.4637 
1277 1 31.4432 3.48667 10.4813 
843 1 0.00856378 5.24592 8.73201 
847 2 3.49858 5.2324 8.74467 
884 2 1.75941 6.97765 8.73195 
1242 2 1.74841 5.2209 10.4985 
1285 2 3.50456 6.97518 10.4765 
851 1 6.97541 5.24305 8.75569 
888 1 5.24169 6.98084 8.73734 
1246 1 5.242 5.24316 10.4868 
1289 1 6.98603 6.99192 10.5006 
855 1 10.4925 5.23652 8.74537 
892 2 8.72946 6.96545 8.74262 