ITEM: TIMESTEP
1000
ITEM: NUMBER OF ATOMS
4001
ITEM: BOX BOUNDS pp pp pp
0.0000000000000000e+00 3.4945000000000000e+01
0.0000000000000000e+00 3.4945000000000000e+01
0.0000000000000000e+00 3.4945000000000000e+01
ITEM: ATOMS id type x y z 
2 1 1.72685 1.75187 0.00644177 
4 2 1.72899 0.00872773 1.73972 
7 1 3.49128 1.73667 1.74155 
41 1 0.0088863 3.50737 0.0023711 
44 2 1.75018 3.49074 1.7443 
45 2 3.48598 3.49185 0.0128879 
402 2 1.752 1.75183 3.47692 
445 2 3.50262 3.49228 3.47988 
6 2 5.23346 1.74354 0.00525586 
8 2 5.25163 0.010347 1.75448 
11 1 6.99614 1.74846 1.74312 
48 2 5.23994 3.48317 1.74365 
406 1 5.242 1.74663 3.49217 
409 2 6.99489 0.0209772 3.50189 
449 1 6.97224 3.48409 3.49788 
10 2 8.75216 1.75105 0.00626007 
12 1 8.74598 0.00864152 1.74607 
15 2 10.4895 1.73986 1.74459 
52 2 8.73981 3.48806 1.75797 
53 1 10.4883 3.49372 0.00631262 
410 2 8.72752 1.75175 3.50432 
413 2 10.4747 0.00700516 3.50425 
453 1 10.4847 3.47959 3.49849 
19 1 13.9735 1.73893 1.74774 
56 2 12.2322 3.47652 1.75677 
57 2 13.9644 3.47924 0.0157526 
414 1 12.2285 1.74563 3.5009 
417 2 13.9777 0.0118185 3.50521 
457 1 13.9888 3.47147 3.49796 
18 2 15.7169 1.74999 0.010028 
23 2 17.4711 1.74149 1.76146 
24 1 19.2071 0.00626213 1.75727 
60 2 15.7133 3.49127 1.75386 
64 2 19.2121 3.47023 1.74348 
418 1 15.7197 1.73279 3.50917 
421 2 17.473 0.00380946 3.51517 
422 1 19.2158 1.7434 3.505 
461 2 17.4653 3.4847 3.50488 
27 1 20.9546 1.7328 1.72919 
28 1 22.7064 0.00285756 1.75081 
68 2 22.7174 3.46444 1.73902 
425 1 20.961 0.0156357 3.49823 
426 1 22.7101 1.74521 3.49398 
465 2 20.9576 3.47221 3.49876 
29 2 24.4655 0.011 0.0020111 
31 1 24.4698 1.74021 1.74249 
32 1 26.2204 0.00286495 1.75665 
72 1 26.2089 3.50386 1.74673 
429 1 24.4763 0.0168205 3.48906 
430 1 26.219 1.76484 3.49327 
469 2 24.4543 3.48287 3.48649 
34 2 29.6938 1.75211 0.00137796 
35 1 27.9573 1.74455 1.74303 
73 1 27.9582 3.47867 0.000627089 
76 1 29.7086 3.4922 1.75609 
433 1 27.9647 0.00674668 3.49171 
434 1 29.7218 1.75648 3.48467 
473 2 27.9675 3.48694 3.48316 
36 1 29.7193 0.000638838 1.74789 
3 1 34.9338 1.75401 1.745 
39 1 31.4533 1.76068 1.7182 
80 2 33.1881 3.50182 1.72846 
401 2 34.9325 0.00252602 3.48488 
438 2 33.1737 1.74223 3.47865 
441 2 34.9306 3.49508 3.48703 
477 1 31.4573 3.49776 3.4913 
43 2 0.0109558 5.24365 1.73272 
47 1 3.50713 5.25396 1.7483 
84 2 1.7589 6.99208 1.7413 
442 2 1.75031 5.2386 3.48462 
481 2 0.00750994 6.99785 3.4886 
485 2 3.50533 6.98463 3.50227 
51 2 6.98268 5.22143 1.75245 
88 2 5.26095 6.97916 1.74818 
446 2 5.2453 5.23632 3.48735 
489 2 6.99197 6.98003 3.51758 
50 2 8.73195 5.23672 0.0111539 
55 2 10.4965 5.23519 1.76531 
92 1 8.73383 6.97185 1.76483 
450 2 8.73885 5.22375 3.49798 
493 2 10.493 6.97888 3.50894 
54 2 12.2388 5.22329 0.0046572 
59 1 13.9767 5.23339 1.74418 
96 2 12.2436 6.99422 1.73641 
97 2 13.9928 6.97479 0.0111278 
454 2 12.2497 5.21876 3.50644 
497 1 13.9803 6.99151 3.48615 
58 1 15.7105 5.23885 0.00769873 
63 2 17.4557 5.23527 1.74486 
100 1 15.7253 6.97557 1.76347 
104 2 19.192 6.97971 1.73084 
458 2 15.7146 5.22835 3.50179 
462 1 19.2162 5.23602 3.48633 
501 2 17.4676 6.97828 3.49587 
67 2 20.9538 5.2223 1.75146 
108 2 22.7104 6.98526 1.73832 
466 2 22.6886 5.22676 3.49233 
505 2 20.9456 6.99244 3.48187 
71 2 24.4562 5.23127 1.74401 
112 2 26.2248 6.97259 1.74354 
470 2 26.214 5.23311 3.50099 
509 2 24.4701 6.99136 3.47814 
74 1 29.708 5.23461 0.00504008 
75 2 27.9711 5.23833 1.74732 
116 1 29.6993 6.99616 1.75217 
474 2 29.7039 5.23531 3.49297 
513 1 27.9542 6.98657 3.49673 
79 2 31.4412 5.24548 1.74878 
120 2 33.1892 7.00041 1.73041 
478 2 33.1967 5.25127 3.49034 
517 2 31.4396 6.98898 3.49432 
83 2 0.000783981 8.73557 1.73601 
87 2 3.52027 8.7197 1.74397 
124 2 1.74442 10.4805 1.73863 
482 2 1.77038 8.74541 3.50041 
521 1 0.00902114 10.4662 3.49081 
525 2 3.50559 10.4845 3.50102 
91 2 6.98799 8.71766 1.75737 
128 2 5.24667 10.4787 1.74465 
129 2 6.99986 10.4818 0.0112872 
486 1 5.25186 8.71573 3.50495 
529 1 6.97401 10.4678 3.47945 
95 2 10.4893 8.73157 1.73463 
132 2 8.7541 10.4625 1.74789 
490 2 8.72165 8.73386 3.50227 
533 1 10.4812 10.4595 3.49282 
99 1 13.9844 8.73861 1.7344 
136 1 12.2216 10.4791 1.75046 
137 2 13.9574 10.4823 0.00452457 
494 2 12.2409 8.73238 3.49098 
537 2 13.9643 10.4746 3.50775 
103 2 17.45 8.72847 1.73757 
140 2 15.7061 10.4827 1.75463 
144 2 19.2272 10.476 1.73668 
498 2 15.7213 8.73364 3.5049 
502 1 19.2056 8.734 3.47221 
541 2 17.4795 10.4922 3.48983 
107 2 20.9551 8.74147 1.72907 
148 1 22.7021 10.4709 1.73952 
506 2 22.6985 8.73674 3.48308 
545 1 20.96 10.4635 3.49885 
111 2 24.4662 8.72776 1.73073 
152 2 26.199 10.4767 1.73559 
510 2 26.2229 8.73598 3.50201 
549 2 24.4492 10.4721 3.47208 
114 1 29.7003 8.72899 0.00685245 
115 1 27.9472 8.73509 1.72494 
156 2 29.7143 10.4634 1.73258 
514 2 29.6873 8.73781 3.46611 
553 1 27.951 10.488 3.49205 
119 1 31.4636 8.73792 1.73442 
160 1 33.2153 10.4786 1.74011 
518 2 33.2025 8.73851 3.48413 
557 2 31.4677 10.4706 3.4837 
123 2 0.00278431 12.2159 1.74447 
127 2 3.50082 12.2404 1.73562 
161 2 0.00459292 13.9591 0.0100154 
164 2 1.73889 13.9776 1.75095 
522 1 1.73375 12.226 3.49577 
565 2 3.49185 13.968 3.4961 
131 2 6.99069 12.2395 1.75911 
168 2 5.24627 13.9802 1.74771 
169 2 6.99707 13.995 0.0138623 
526 1 5.24577 12.2298 3.50362 
569 1 6.97361 13.981 3.49898 
135 1 10.4713 12.2201 1.75257 
172 2 8.7429 13.9815 1.76283 
530 2 8.72467 12.2256 3.50212 
573 1 10.4853 13.9823 3.50018 
139 2 13.967 12.2305 1.75497 
176 2 12.2295 13.9648 1.7516 
177 2 13.9766 13.9899 0.015389 
534 2 12.213 12.2314 3.49586 
577 1 13.977 13.9687 3.50715 
143 2 17.4665 12.2433 1.74283 
180 1 15.7251 13.979 1.74491 
184 2 19.2005 13.9952 1.74479 
538 2 15.7265 12.2392 3.50651 
542 2 19.2329 12.228 3.48984 
581 1 17.4711 13.9795 3.50233 
146 2 22.7172 12.2331 0.0170539 
147 2 20.9686 12.2164 1.76322 
185 2 20.9512 13.9687 0.016743 
188 2 22.7074 13.9906 1.7652 
546 1 22.7057 12.2177 3.49597 
585 1 20.9713 13.9897 3.49711 
150 1 26.2029 12.2139 0.00677965 
151 2 24.4499 12.2209 1.74607 
189 2 24.4704 13.9775 0.00465957 
192 2 26.2104 13.9905 1.74979 
550 2 26.1987 12.2377 3.48666 
589 2 24.4443 13.9894 3.50295 
154 1 29.707 12.2229 0.013541 
155 2 27.9544 12.2159 1.74658 
193 1 27.9502 13.972 0.00740075 
196 2 29.715 13.9725 1.75246 
554 2 29.7058 12.2254 3.48221 
593 2 27.9614 13.9631 3.49503 
158 1 33.2024 12.2163 0.00636788 
159 2 31.4668 12.2091 1.74056 
197 2 31.4458 13.9553 0.00439644 
200 1 33.2033 13.9664 1.73495 
558 2 33.224 12.2128 3.48818 
561 1 34.9417 13.9716 3.48481 
597 2 31.4708 13.9714 3.48868 
162 1 1.74173 15.734 0.0102566 
163 2 0.00363759 15.7211 1.75377 
167 1 3.48853 15.7131 1.75894 
201 2 0.00356185 17.4757 0.000996537 
202 2 1.74391 19.2072 0.00484127 
203 2 0.00466992 19.2276 1.75678 
204 1 1.75173 17.4623 1.74631 
205 1 3.4924 17.4686 0.00515663 
207 1 3.47159 19.2262 1.74998 
562 2 1.74524 15.7078 3.48532 
601 2 0.00583338 17.4701 3.50604 
602 2 1.73933 19.231 3.49003 
605 1 3.48006 17.4786 3.49844 
166 1 5.24691 15.7413 0.0112349 
171 1 6.9889 15.7276 1.76925 
206 2 5.22532 19.2122 0.00138537 
208 2 5.2128 17.4795 1.76802 
209 2 6.9756 17.4698 0.00969061 
211 2 6.9665 19.2236 1.75336 
566 2 5.24467 15.7311 3.49149 
606 1 5.21045 19.2372 3.49478 
609 1 6.98097 17.4942 3.4925 
175 2 10.4792 15.7076 1.73819 
210 2 8.73164 19.2181 0.0157937 
212 2 8.72881 17.4697 1.76032 
215 2 10.4823 19.2187 1.76391 
570 1 8.73808 15.7218 3.49912 
610 1 8.72166 19.2242 3.49287 
613 2 10.4783 17.469 3.49266 
179 1 13.9755 15.7252 1.75573 
214 2 12.2395 19.2217 0.0160156 
216 2 12.2494 17.4709 1.75648 
219 2 13.9944 19.2012 1.76208 
574 2 12.2282 15.7225 3.49995 
614 1 12.2347 19.2188 3.4986 
617 1 13.9741 17.4755 3.5107 
178 2 15.7225 15.7431 0.0074141 
183 2 17.459 15.7342 1.74848 
220 1 15.7141 17.478 1.74645 
222 2 19.2125 19.2173 0.0022907 
223 1 17.4658 19.2132 1.7401 
224 1 19.2126 17.4738 1.7525 
578 2 15.7125 15.7186 3.49265 
582 2 19.2248 15.734 3.50976 
618 1 15.7387 19.2131 3.50713 
621 2 17.463 17.4737 3.48991 
622 2 19.2122 19.2128 3.4868 
187 2 20.9702 15.7458 1.76233 
225 2 20.9664 17.4782 0.011979 
226 2 22.7386 19.2212 0.00555065 
227 1 20.9719 19.2112 1.75066 
228 1 22.7247 17.4709 1.74534 
586 1 22.7085 15.7398 3.50509 
625 2 20.9793 17.4806 3.50433 
626 2 22.7358 19.2105 3.49948 
191 2 24.4652 15.7431 1.74562 
230 1 26.2113 19.219 0.0050771 
231 1 24.4785 19.2075 1.7576 
232 1 26.2256 17.4659 1.75351 
590 1 26.2288 15.7146 3.51343 
629 1 24.4808 17.4637 3.49192 
630 1 26.2204 19.2239 3.50344 
195 2 27.9555 15.7316 1.74268 
235 1 27.9597 19.2129 1.74374 
236 2 29.6976 17.471 1.75556 
594 2 29.7067 15.7197 3.50918 
633 2 27.9542 17.477 3.49759 
634 2 29.7003 19.2232 3.50443 
199 2 31.4609 15.7205 1.74314 
239 2 31.4427 19.226 1.74958 
240 2 33.2041 17.4727 1.74269 
598 2 33.2067 15.7292 3.49965 
637 2 31.4584 17.4742 3.50435 
638 1 33.2052 19.2099 3.48967 
242 2 1.72282 22.7249 0.00191253 
244 1 1.73059 20.9711 1.73632 
247 2 3.495 22.7029 1.75291 
642 2 1.72958 22.7256 3.48706 
645 2 3.47455 20.9764 3.49098 
248 1 5.24224 20.9623 1.73146 
251 1 6.98871 22.7115 1.7396 
646 2 5.25291 22.7039 3.49132 
649 2 6.97913 20.9675 3.49837 
250 2 8.73749 22.7163 0.017117 
252 2 8.71969 20.9781 1.7597 
255 2 10.4654 22.7221 1.75228 
650 1 8.72109 22.7249 3.49191 
653 2 10.4717 20.959 3.49809 
254 2 12.2351 22.7208 0.0117237 
256 2 12.2328 20.968 1.75665 
257 2 13.9922 20.959 0.0116891 
259 2 13.9805 22.7226 1.77244 
654 2 12.2198 22.7163 3.49896 
657 2 13.9897 20.954 3.50299 
258 2 15.7337 22.7118 0.00244797 
260 2 15.7431 20.9475 1.74496 
263 2 17.4799 22.7161 1.75585 
264 2 19.2179 20.9461 1.74701 
658 2 15.738 22.7002 3.51474 
661 1 17.4755 20.9551 3.50402 
662 2 19.2302 22.7141 3.49678 
265 2 20.972 20.9779 0.014119 
266 1 22.708 22.7087 0.0128603 
267 2 20.9806 22.7138 1.75464 
268 2 22.7328 20.9563 1.75588 
665 1 20.9799 20.9437 3.49474 
666 1 22.71 22.7246 3.50556 
269 1 24.4798 20.9743 0.00423744 
270 1 26.2218 22.7247 0.0153095 
271 1 24.4592 22.7248 1.7639 
272 1 26.2176 20.9767 1.76353 
669 2 24.459 20.9728 3.48653 
670 2 26.2228 22.724 3.49183 
273 2 27.9418 20.9609 0.0041318 
274 2 29.7136 22.7155 0.00435251 
275 2 27.9699 22.7147 1.76013 
276 2 29.7078 20.9702 1.7409 
673 2 27.9665 20.9597 3.50143 
674 1 29.7156 22.7078 3.49509 
243 2 34.9218 22.7174 1.73703 
279 1 31.4601 22.7102 1.74578 
280 1 33.1856 20.9632 1.74037 
641 1 34.9365 20.9677 3.48998 
677 2 31.462 20.9622 3.49707 
678 2 33.1859 22.7096 3.48401 
284 1 1.74822 24.4694 1.74947 
285 2 3.48455 24.4663 0.000693149 
287 2 3.50151 26.2025 1.75426 
682 1 1.73449 26.1908 3.49281 
685 1 3.50808 24.4538 3.4938 
286 1 5.24583 26.1875 0.00729037 
288 2 5.24843 24.4512 1.74433 
289 2 6.98835 24.471 0.0126261 
291 1 6.9817 26.2262 1.74886 
686 2 5.24132 26.2167 3.49331 
689 1 6.99094 24.4703 3.48571 
290 2 8.71846 26.2353 0.0128713 
292 1 8.72966 24.4724 1.74794 
295 2 10.4741 26.2287 1.74674 
690 2 8.73453 26.225 3.48139 
693 2 10.469 24.4698 3.4933 
294 2 12.2457 26.2213 0.00701234 
296 2 12.2165 24.4816 1.75426 
297 2 13.9931 24.4759 0.0101906 
299 2 13.9868 26.2224 1.76418 
694 1 12.2309 26.2121 3.50004 
697 2 13.983 24.4732 3.52163 
298 1 15.7356 26.2038 0.00352249 
300 2 15.7432 24.4653 1.75117 
303 1 17.4689 26.2147 1.73619 
304 2 19.2154 24.4819 1.74057 
698 2 15.7156 26.2155 3.49945 
701 1 17.4636 24.4714 3.51288 
702 2 19.2105 26.211 3.50565 
306 1 22.7086 26.23 0.00645015 
307 2 20.9597 26.2231 1.75243 
308 2 22.7141 24.4659 1.7533 
705 1 20.9738 24.4809 3.49236 
706 2 22.7342 26.202 3.49555 
309 2 24.4448 24.4547 0.0122492 
310 2 26.2029 26.2024 0.00445062 
311 2 24.4777 26.2062 1.74958 
312 2 26.2216 24.4617 1.76393 
709 1 24.4895 24.4761 3.50121 
710 1 26.2181 26.2273 3.50254 
313 2 27.966 24.4711 0.0030103 
314 2 29.7164 26.2264 0.00112733 
315 1 27.9645 26.2175 1.74701 
316 2 29.7197 24.465 1.75969 
713 2 27.9689 24.4753 3.49751 
714 1 29.7194 26.224 3.49936 
283 2 34.9333 26.1912 1.73099 
319 2 31.4465 26.2108 1.73857 
320 1 33.1748 24.4613 1.72971 
681 1 34.9136 24.4686 3.48243 
717 2 31.4569 24.4651 3.4998 
718 2 33.1894 26.2186 3.48282 
324 2 1.73853 27.9346 1.74257 
327 2 3.49439 29.6962 1.75525 
722 2 1.75194 29.6936 3.49747 
725 2 3.48251 27.9565 3.49206 
326 1 5.22793 29.7056 0.00354292 
328 2 5.24086 27.9604 1.73903 
331 2 6.98088 29.698 1.74236 
726 1 5.22715 29.7086 3.50786 
729 2 6.9844 27.9637 3.48972 
332 1 8.72106 27.9756 1.7418 
333 2 10.4954 27.9809 0.0124708 
335 2 10.4796 29.7125 1.75157 
730 1 8.72965 29.7109 3.49749 
733 2 10.5003 27.9759 3.47691 
334 2 12.2357 29.7211 0.00956813 
336 1 12.2516 27.967 1.74856 
339 2 13.9785 29.7104 1.74259 
734 1 12.2466 29.7177 3.49725 
737 1 13.9753 27.9673 3.50927 
338 1 15.722 29.7092 0.012689 
340 2 15.7223 27.9576 1.73365 
342 1 19.2313 29.7045 0.00718468 
343 2 17.4868 29.6938 1.75779 
344 1 19.217 27.9569 1.7509 
738 2 15.7246 29.7104 3.49409 
741 2 17.4651 27.9517 3.49127 
742 2 19.2208 29.7066 3.50004 
345 2 20.9605 27.973 0.00669306 
346 2 22.6969 29.7152 0.00504661 
347 1 20.9669 29.7196 1.7492 
348 2 22.7039 27.9672 1.76241 
745 2 20.9632 27.958 3.50943 
746 2 22.7073 29.7176 3.50273 
349 2 24.4596 27.9574 0.00489086 
351 2 24.4616 29.7138 1.7513 
352 2 26.2237 27.967 1.74846 
749 2 24.4692 27.9501 3.50371 
750 2 26.2192 29.7174 3.49159 
353 2 27.9658 27.9668 0.00302874 
355 1 27.9604 29.7235 1.74894 
356 2 29.7079 27.9684 1.74836 
753 2 27.9661 27.9627 3.48888 
754 2 29.7162 29.7196 3.48296 
323 2 34.9406 29.7064 1.74675 
357 1 31.4514 27.9675 0.0118532 
359 2 31.4641 29.7145 1.74057 
360 1 33.1967 27.9583 1.73411 
721 2 34.9375 27.9421 3.48841 
757 2 31.4672 27.9708 3.49126 
758 1 33.2098 29.7038 3.50464 
363 1 0.00712878 33.1805 1.74006 
364 2 1.73916 31.4478 1.74649 
365 2 3.49713 31.4502 0.0120768 
367 2 3.47966 33.2113 1.74441 
405 2 3.49162 34.9408 3.4997 
762 2 1.73359 33.1976 3.49286 
765 1 3.4876 31.4543 3.48607 
366 1 5.24225 33.2123 0.010681 
368 2 5.23751 31.4543 1.75024 
369 2 6.98547 31.4505 0.00338414 
371 2 7.00161 33.2189 1.74699 
766 2 5.23697 33.1973 3.48077 
769 2 6.97539 31.4431 3.51405 
13 2 10.4837 34.9366 0.00728442 
370 2 8.74049 33.184 0.0125509 
372 2 8.73141 31.4428 1.76042 
373 1 10.4729 31.4534 0.00675785 
375 1 10.4703 33.1833 1.76135 
770 2 8.73446 33.1878 3.49634 
773 2 10.4802 31.4436 3.49958 
16 2 12.2233 34.9347 1.75274 
17 2 13.9738 34.9271 0.000381872 
374 1 12.2311 33.1969 0.0109877 
376 2 12.2292 31.457 1.75334 
379 1 13.9865 33.1851 1.76169 
774 2 12.2337 33.1937 3.49753 
777 2 13.9876 31.4485 3.50264 
20 2 15.7268 34.9427 1.76228 
380 2 15.7292 31.4531 1.76048 
381 2 17.4762 31.434 0.0115772 
383 2 17.4642 33.2006 1.75206 
384 2 19.2172 31.4572 1.73744 
778 2 15.7223 33.2091 3.51692 
781 1 17.4748 31.461 3.50729 
782 2 19.2094 33.2155 3.49769 
25 2 20.9586 34.9376 0.000841174 
385 1 20.9668 31.4628 0.000563653 
387 2 20.9589 33.2128 1.74298 
388 2 22.7087 31.4736 1.74503 
785 2 20.9545 31.4713 3.48698 
786 2 22.7249 33.227 3.48932 
391 2 24.4691 33.2232 1.74624 
392 2 26.2163 31.474 1.73812 
789 2 24.4682 31.4738 3.49502 
790 1 26.2168 33.1978 3.50529 
395 2 27.9741 33.214 1.73843 
396 2 29.7186 31.4631 1.73668 
793 2 27.9766 31.4711 3.49188 
794 1 29.7236 33.2006 3.48938 
1 1 34.9394 34.9348 0.00638725 
37 2 31.4631 34.9416 0.00113218 
40 2 33.1947 34.9293 1.73793 
398 2 33.1996 33.1735 0.00171676 
399 1 31.4611 33.1784 1.73692 
400 1 33.2109 31.4478 1.75389 
437 1 31.4513 34.9453 3.47992 
761 2 34.9437 31.4539 3.50222 
797 1 31.463 31.4487 3.48765 
798 1 33.2089 33.2064 3.48895 
404 2 1.74031 0.0145683 5.25659 
407 2 3.50264 1.7479 5.2262 
444 1 1.74354 3.49145 5.22407 
802 2 1.7473 1.74708 6.99011 
805 1 3.49876 0.0108255 6.98543 
845 2 3.48091 3.49273 6.9914 
408 1 5.23957 0.00140444 5.22441 
411 1 6.98295 1.74003 5.2535 
448 2 5.23536 3.48634 5.24808 
806 1 5.23322 1.74436 6.9813 
809 1 6.98393 0.0044258 6.99301 
849 2 6.98324 3.48526 6.99866 
415 2 10.4879 1.75221 5.25331 
452 2 8.73282 3.48685 5.23793 
810 1 8.7346 1.7527 6.99127 
853 2 10.4922 3.49324 6.99624 
419 1 13.9612 1.74137 5.26089 
456 2 12.2414 3.48532 5.25297 
814 1 12.2242 1.74461 7.00692 
857 1 13.9879 3.46922 7.00172 
420 1 15.7152 0.0163453 5.26344 
423 1 17.4758 1.75388 5.25021 
424 2 19.2108 0.00765687 5.24017 
460 2 15.7121 3.47412 5.25195 
464 2 19.2347 3.49316 5.24331 
818 2 15.7292 1.75082 6.99275 
821 2 17.4767 0.00893 7.00415 
822 2 19.2215 1.75005 6.99456 
861 2 17.4654 3.49865 7.007 
427 1 20.9754 1.73593 5.25314 
428 2 22.7279 0.0178007 5.23706 
468 1 22.6982 3.49317 5.23007 
826 1 22.7243 1.74447 6.99519 
865 2 20.9802 3.4908 6.98136 
431 2 24.4607 1.755 5.22924 
432 1 26.2218 0.00960563 5.23686 
472 2 26.2027 3.49961 5.23668 
829 2 24.4651 0.00143219 6.98725 
830 2 26.2132 1.74887 6.98201 
869 2 24.4401 3.50301 6.99203 
435 1 27.9587 1.75013 5.23767 
436 2 29.7191 0.00454037 5.22728 
476 2 29.7093 3.49166 5.23366 
833 2 27.9685 0.0131587 6.97894 
834 1 29.7176 1.75734 6.98203 
873 2 27.9674 3.50073 6.9788 
403 2 34.9329 1.75156 5.23823 
439 1 31.4602 1.75529 5.24577 
440 1 33.1874 0.00899509 5.22197 
480 2 33.2037 3.48876 5.24508 
801 1 34.9268 0.00897713 6.98542 
837 2 31.4605 0.00320931 6.96911 
838 2 33.1909 1.74901 7.00087 
841 1 34.9409 3.49307 6.98468 
877 2 31.4568 3.51638 6.988 
443 2 0.000871796 5.23381 5.24502 
447 2 3.49303 5.23318 5.22874 
484 2 1.75811 6.97804 5.24218 
842 2 1.74314 5.23689 6.98018 
881 2 0.00293092 6.97761 6.98683 
885 1 3.49051 6.97161 6.98324 
451 2 6.99436 5.22897 5.25341 
488 1 5.24395 6.97673 5.24198 
846 2 5.23867 5.2449 7.00295 
889 1 6.9911 6.9659 6.9884 
455 1 10.4818 5.22889 5.24173 
492 2 8.73049 6.98546 5.24598 
850 2 8.74117 5.22542 7.00798 
893 1 10.4738 6.96997 6.99062 
459 1 13.9866 5.23452 5.25938 
496 2 12.2406 6.97757 5.25846 
854 2 12.2376 5.23 6.9946 
897 1 13.9792 6.98613 6.99766 
463 2 17.4785 5.22564 5.26181 
500 2 15.7125 6.98968 5.25296 
504 2 19.2152 6.98286 5.24274 
858 1 15.7124 5.23099 7.00027 
862 1 19.2343 5.22531 7.00351 
901 1 17.4883 6.98337 6.98947 
467 1 20.9575 5.25232 5.24061 
508 2 22.7214 6.97565 5.24241 
866 2 22.6942 5.23979 6.98752 
905 2 20.9531 6.99134 6.98907 
471 2 24.4546 5.25233 5.23501 
512 1 26.2121 7.00041 5.22763 
870 2 26.2189 5.26395 6.97862 
909 2 24.4684 7.0042 6.98684 
475 1 27.956 5.23542 5.2341 
516 2 29.6904 6.98374 5.2356 
874 1 29.7065 5.2582 6.97928 
913 2 27.9605 6.99889 6.97793 
479 2 31.4458 5.23966 5.24763 
520 2 33.1957 7.00364 5.23914 
878 2 33.1919 5.25006 6.99632 
917 1 31.4511 7.00011 6.97793 
483 2 0.00818517 8.73857 5.23875 
487 2 3.50877 8.72291 5.25926 
524 2 1.73743 10.4834 5.24438 
882 1 1.73791 8.72183 6.99084 
925 1 3.49008 10.4757 6.98268 
491 1 6.98211 8.73979 5.25258 
528 2 5.25405 10.4679 5.25732 
886 1 5.24898 8.7123 6.99708 
929 1 6.97765 10.4876 7.00261 
495 2 10.4786 8.73002 5.2558 
532 1 8.72422 10.4827 5.2463 
890 2 8.7222 8.74272 6.9856 
933 1 10.4844 10.4807 7.00296 
499 1 13.9733 8.74129 5.2545 
536 2 12.2227 10.4834 5.24419 
894 2 12.2375 8.73196 6.99856 
937 1 13.9794 10.4946 6.99244 
503 2 17.4693 8.72905 5.24945 
540 1 15.7319 10.4706 5.24791 
544 2 19.2109 10.4713 5.23109 
898 1 15.7094 8.73446 6.98459 
902 1 19.2338 8.74683 6.98711 
941 2 17.4663 10.463 6.98575 
507 2 20.9649 8.72871 5.23009 
548 2 22.7108 10.4855 5.21977 
906 2 22.7127 8.73069 6.99049 
945 2 20.9668 10.4802 6.96735 
511 1 24.4442 8.73416 5.22504 
552 2 26.2135 10.4784 5.22982 
910 1 26.2143 8.73932 6.96272 
949 2 24.46 10.4696 6.98813 
515 1 27.9721 8.73564 5.23557 
556 2 29.7096 10.4938 5.22388 
914 2 29.7012 8.72827 6.99498 
953 2 27.9748 10.4735 6.96529 
519 2 31.4365 8.74025 5.23059 
560 1 33.2026 10.4647 5.24128 
918 2 33.2 8.74385 6.99258 
921 2 34.9408 10.4827 6.98598 
957 1 31.4434 10.4753 6.98239 
527 2 3.48716 12.2231 5.23981 
564 1 1.74656 13.9622 5.23618 
922 2 1.74388 12.2261 6.97713 
965 2 3.48241 13.9695 6.99543 
531 2 6.98168 12.2193 5.24961 
568 2 5.22918 13.9831 5.25217 
926 1 5.23437 12.2355 6.99735 
969 1 6.979 13.9878 6.99038 
535 2 10.4746 12.2134 5.23076 
572 2 8.73297 13.9668 5.23619 
930 1 8.74156 12.2251 6.99117 
973 2 10.4653 13.9659 6.97344 
539 2 13.9776 12.2251 5.25209 
576 1 12.2129 13.9796 5.24867 
934 2 12.2138 12.2236 6.99202 
977 2 13.9711 13.9612 6.97908 
543 2 17.4783 12.2418 5.24269 
580 1 15.7287 13.9777 5.25744 
584 2 19.2237 13.9949 5.22961 
938 2 15.7274 12.2132 6.98555 
942 2 19.2242 12.2269 6.98407 
981 2 17.4778 13.9889 6.98207 
547 1 20.9561 12.22 5.22461 
588 1 22.7018 13.9683 5.24116 
946 2 22.7124 12.2222 6.96735 
985 2 20.9634 13.9913 6.96612 
551 2 24.4553 12.2203 5.24083 
592 1 26.2039 13.9606 5.23499 
950 2 26.2105 12.2177 6.98045 
989 2 24.4675 13.9725 6.98869 
555 1 27.9635 12.2396 5.23035 
596 1 29.7237 13.9594 5.23891 
954 2 29.7178 12.2222 6.97651 
993 2 27.9572 13.9572 6.97424 
523 1 34.9426 12.2162 5.23851 
559 2 31.4639 12.2145 5.23553 
600 2 33.2148 13.9697 5.23239 
958 1 33.197 12.22 6.97908 
961 1 34.9442 13.9735 6.97914 
997 2 31.4726 13.9609 6.98768 
563 1 0.00593584 15.7154 5.23545 
567 2 3.47771 15.7248 5.22795 
604 2 1.73443 17.473 5.23341 
607 2 3.48687 19.2379 5.22998 
962 2 1.73446 15.7114 6.98391 
1001 1 0.00178532 17.4734 6.99774 
1002 2 1.72997 19.2206 6.99395 
1005 2 3.47729 17.4662 6.96553 
571 2 6.97949 15.7329 5.23324 
608 1 5.23358 17.4588 5.22877 
611 1 6.96762 19.2166 5.23094 
966 1 5.22026 15.7315 6.98729 
1006 2 5.2302 19.2082 6.96212 
1009 2 6.97091 17.4574 6.97936 
575 2 10.4736 15.7317 5.24062 
612 2 8.71637 17.4915 5.23472 
615 1 10.4819 19.2088 5.22746 
970 2 8.71237 15.7149 6.98321 
1010 2 8.72141 19.2203 6.98487 
1013 2 10.4664 17.477 6.98705 
579 2 13.9828 15.7098 5.2442 
616 2 12.2287 17.4688 5.24036 
619 2 13.9702 19.2279 5.2376 
974 2 12.2251 15.7225 6.98802 
1014 2 12.2211 19.2207 6.97906 
1017 2 13.9895 17.4682 6.97943 
583 1 17.4623 15.7288 5.2335 
620 2 15.7344 17.464 5.23571 
623 2 17.4749 19.215 5.24291 
624 1 19.2093 17.4757 5.25138 
978 2 15.738 15.7222 6.99828 
982 1 19.2185 15.7224 6.97421 
1018 2 15.7251 19.2167 6.99687 
1021 1 17.4682 17.4657 6.99117 
1022 2 19.2314 19.1974 6.99912 
587 1 20.9763 15.7433 5.23471 
627 2 20.9809 19.2044 5.24203 
628 1 22.7309 17.4808 5.25411 
986 2 22.704 15.7382 6.97167 
1025 1 20.9668 17.4668 6.9922 
1026 1 22.7227 19.219 6.99015 
591 2 24.4538 15.7186 5.23862 
631 2 24.4728 19.2151 5.23492 
632 2 26.2166 17.4558 5.22983 
990 2 26.2146 15.7071 6.98518 
1029 1 24.4829 17.4665 6.98236 
1030 2 26.21 19.2173 6.97442 
595 2 27.975 15.7051 5.2436 
635 1 27.958 19.2101 5.24918 
636 1 29.7104 17.4777 5.24667 
994 2 29.7227 15.7144 6.98243 
1033 2 27.955 17.4669 6.97653 
1034 2 29.7152 19.2256 6.99135 
599 2 31.462 15.7252 5.25401 
603 1 34.9415 19.2133 5.22906 
639 2 31.4629 19.2109 5.25002 
640 1 33.2095 17.4723 5.25695 
998 1 33.212 15.7172 6.97945 
1037 2 31.4681 17.4714 6.98882 
1038 2 33.2104 19.2177 6.99478 
644 1 1.72765 20.9769 5.25632 
647 1 3.47802 22.7242 5.22968 
1042 2 1.72263 22.7215 6.98476 
1045 2 3.48903 20.9824 6.98256 
648 1 5.23546 20.9839 5.24322 
651 1 6.99061 22.7147 5.23043 
1046 2 5.2431 22.7353 6.97714 
1049 2 6.97893 20.9738 6.98647 
652 1 8.7317 20.9618 5.23131 
655 2 10.4677 22.7054 5.23912 
1050 2 8.71883 22.7127 6.97768 
1053 2 10.4727 20.9562 6.98654 
656 2 12.2134 20.9662 5.24676 
659 1 13.9671 22.7041 5.24563 
1054 2 12.2276 22.719 6.99823 
1057 2 13.9737 20.9759 6.99161 
660 2 15.7339 20.9683 5.24908 
663 1 17.4936 22.6978 5.24897 
664 2 19.2366 20.9513 5.23755 
1058 2 15.7232 22.7169 6.9887 
1061 2 17.4879 20.956 6.99282 
1062 2 19.2336 22.7247 6.98949 
667 2 20.9678 22.7287 5.23026 
668 1 22.7173 20.9735 5.23382 
1065 2 20.978 20.9622 6.97935 
1066 2 22.7179 22.7136 6.97745 
671 2 24.4806 22.731 5.22376 
672 2 26.2186 20.9771 5.23816 
1069 2 24.4644 20.9593 6.9773 
1070 2 26.2344 22.7153 6.98486 
675 1 27.9727 22.7144 5.23995 
676 2 29.7066 20.9618 5.2536 
1073 2 27.9767 20.9751 6.98536 
1074 1 29.7118 22.7172 6.99137 
643 1 34.9299 22.7229 5.22036 
679 2 31.4477 22.7166 5.24785 
680 2 33.2102 20.962 5.22917 
1041 2 34.9303 20.9638 6.97764 
1077 1 31.4573 20.9619 6.98552 
1078 1 33.2015 22.7106 6.98382 
684 2 1.72619 24.4512 5.21175 
687 2 3.50086 26.201 5.22844 
1082 2 1.75123 26.1997 6.97604 
1085 2 3.48951 24.4662 6.96569 
688 2 5.25427 24.4579 5.22831 
691 1 6.99758 26.235 5.2292 
1086 1 5.24679 26.2017 6.97919 
1089 2 6.99101 24.4788 6.97885 
692 2 8.72276 24.4614 5.22485 
695 2 10.4793 26.2192 5.2406 
1090 2 8.71706 26.2284 6.98975 
1093 2 10.4794 24.4686 6.9891 
696 2 12.2333 24.4635 5.2456 
699 1 13.9581 26.2248 5.25102 
1094 2 12.222 26.214 6.99051 
1097 1 13.97 24.4646 6.99492 
700 2 15.719 24.4563 5.25903 
703 1 17.464 26.2143 5.23986 
704 2 19.2246 24.4796 5.23967 
1098 2 15.7307 26.2088 6.99032 
1101 2 17.4784 24.4686 6.97435 
1102 1 19.2203 26.2049 6.97973 
707 1 20.9854 26.205 5.24269 
708 2 22.7281 24.4711 5.24333 
1105 1 20.977 24.471 6.99886 
1106 2 22.7027 26.2294 6.996 
711 1 24.4693 26.2193 5.2445 
712 1 26.2377 24.4679 5.23773 
1109 2 24.4608 24.4702 6.9708 
1110 2 26.2215 26.2151 6.96768 
715 2 27.9649 26.215 5.23215 
716 2 29.7178 24.4635 5.23423 
1113 2 27.98 24.4559 6.99174 
1114 2 29.7141 26.2043 6.97575 
683 2 34.9235 26.1903 5.23562 
719 1 31.4686 26.2224 5.23976 
720 1 33.1782 24.4496 5.24172 
1081 2 34.9191 24.4481 6.98608 
1117 1 31.4504 24.4654 6.98566 
1118 2 33.1946 26.1977 6.99151 
723 2 0.00825914 29.7031 5.24563 
724 2 1.73419 27.9441 5.23695 
727 1 3.48411 29.707 5.24348 
1122 2 1.74108 29.7066 6.98921 
1125 2 3.48923 27.9477 6.98171 
728 2 5.23323 27.9581 5.24289 
731 2 6.98685 29.7001 5.24905 
1126 2 5.24079 29.6984 6.97772 
1129 2 6.98641 27.9556 7.00336 
732 2 8.74074 27.982 5.23386 
735 2 10.4733 29.7203 5.24122 
1130 1 8.7302 29.7047 7.01183 
1133 2 10.4722 27.9672 7.00716 
736 2 12.2278 27.9755 5.23494 
739 2 13.9874 29.7155 5.24614 
1134 2 12.2136 29.7164 6.97925 
1137 2 13.9748 27.9556 6.98775 
740 2 15.7293 27.9663 5.25235 
743 1 17.4665 29.7111 5.2334 
744 1 19.2211 27.9498 5.24289 
1138 2 15.7481 29.7064 6.99421 
1141 2 17.484 27.9538 6.99628 
1142 1 19.1986 29.7008 6.97634 
747 1 20.9661 29.7255 5.24208 
748 1 22.7065 27.9636 5.2391 
1145 1 20.9624 27.9747 6.98302 
1146 1 22.7265 29.7088 6.97528 
751 2 24.4577 29.6975 5.23481 
752 1 26.2212 27.9703 5.23686 
1149 2 24.4576 27.9648 6.97345 
1150 2 26.2056 29.712 6.99267 
755 2 27.9684 29.7108 5.24325 
756 2 29.7208 27.9695 5.24919 
1153 2 27.9675 27.9603 6.9893 
1154 2 29.7172 29.7232 7.00574 
759 2 31.4596 29.7077 5.24572 
760 1 33.2098 27.9621 5.24436 
1121 2 34.9422 27.9568 6.99616 
1157 2 31.4694 27.9523 7.00185 
1158 2 33.2066 29.6995 6.98851 
764 2 1.74571 31.4525 5.24738 
767 2 3.48979 33.1985 5.2359 
1162 2 1.73256 33.2119 6.995 
1165 2 3.49461 31.4612 6.97718 
768 2 5.23598 31.4572 5.24686 
771 2 6.98622 33.2056 5.24825 
1166 2 5.24377 33.2135 6.99434 
1169 1 6.98343 31.4469 6.98943 
412 2 8.72631 34.9391 5.2585 
772 1 8.72961 31.4487 5.25113 
775 2 10.4935 33.1904 5.2483 
813 1 10.4917 34.9383 6.98385 
1170 2 8.73638 33.2002 6.99902 
1173 2 10.4651 31.4614 6.99634 
416 2 12.2382 34.9346 5.25423 
776 1 12.2255 31.4569 5.2437 
779 1 13.9751 33.192 5.24677 
817 2 13.9598 34.9415 6.9965 
1174 1 12.2335 33.1861 6.99562 
1177 2 13.976 31.4584 6.98456 
780 1 15.7273 31.4536 5.24671 
783 2 17.4483 33.2014 5.26596 
784 2 19.2006 31.4473 5.25174 
1178 2 15.716 33.2013 7.00473 
1181 2 17.4794 31.4502 6.99959 
1182 1 19.2121 33.2014 6.98299 
787 2 20.9617 33.2027 5.23893 
788 2 22.7156 31.4513 5.24224 
825 2 20.9737 34.9407 6.97993 
1185 2 20.9528 31.4398 6.98838 
1186 2 22.7037 33.199 6.99457 
791 2 24.4745 33.2103 5.23894 
792 2 26.2277 31.4575 5.24302 
1189 2 24.4635 31.4596 6.98892 
1190 2 26.2316 33.218 6.98123 
795 2 27.9822 33.2155 5.24168 
796 1 29.7133 31.4584 5.23309 
1193 2 27.9777 31.4654 6.99412 
1194 1 29.7141 33.1961 6.99233 
763 2 34.9291 33.2076 5.24178 
799 1 31.4593 33.192 5.23439 
800 2 33.1954 31.4514 5.22863 
1161 1 34.9323 31.4476 6.99424 
1197 2 31.4552 31.4559 6.98173 
1198 2 33.1944 33.2105 6.97448 
803 1 0.00418506 1.74445 8.72354 
804 1 1.74009 0.000508161 8.73152 
807 2 3.49924 1.74892 8.73484 
844 2 1.73771 3.48969 8.73916 
1201 2 0.00743059 0.0210824 10.4631 
1202 1 1.74094 1.76071 10.4684 
1205 2 3.48335 0.0145541 10.4683 
1241 1 0.000534284 3.49547 10.477 
1245 1 3.50343 3.48228 10.4941 
808 1 5.2359 0.00581164 8.72813 
811 1 6.97167 1.73997 8.72685 
848 1 5.24592 3.49798 8.73619 
1206 1 5.24088 1.7415 10.4823 
1209 2 6.98352 0.0107714 10.4774 
1249 1 6.97798 3.47616 10.482 
812 1 8.74589 0.00548113 8.72647 
815 2 10.4736 1.74337 8.73464 
852 2 8.72892 3.48779 8.75116 
1210 2 8.72124 1.73986 10.4789 
1253 1 10.486 3.47004 10.4778 
819 2 13.9832 1.73396 8.73037 
856 1 12.2306 3.48823 8.72908 
1214 2 12.2317 1.74193 10.4781 
1257 2 13.9697 3.50058 10.4768 
823 1 17.4804 1.75699 8.75956 
860 2 15.7156 3.49052 8.75994 
864 2 19.2381 3.48539 8.7551 
1218 2 15.7365 1.73141 10.4918 
1222 1 19.2302 1.7433 10.5014 
1261 2 17.4757 3.48655 10.5014 
827 2 20.9662 1.7365 8.73093 
868 1 22.7001 3.49719 8.73278 
1226 2 22.7153 1.75839 10.471 
1265 2 20.9839 3.49207 10.4985 
831 2 24.4517 1.74361 8.73425 
832 1 26.2205 0.0173976 8.73809 
872 2 26.1886 3.5038 8.72697 
1229 2 24.4629 0.0130018 10.4843 
1230 1 26.1936 1.7657 10.4723 
1269 1 24.4487 3.50112 10.4642 
835 2 27.9608 1.75236 8.73197 
836 2 29.7085 0.0052401 8.72364 
876 2 29.7165 3.5117 8.72866 
1233 2 27.9491 0.0285642 10.4802 
1234 1 29.6986 1.75764 10.4782 
1273 2 27.9484 3.50399 10.4772 
839 2 31.455 1.76904 8.73612 
840 1 33.1859 0.00998967 8.73774 
880 1 33.1937 3.51435 8.73718 
1237 2 31.4532 0.0349187 10.4809 
1238 1 33.206 1.76779 10.4637 
1277 1 31.4434 3.487 10.4813 
843 1 0.00856059 5.24635 8.7322 
847 2 3.49841 5.23279 8.74483 
884 2 1.75934 6.97816 8.73227 
1242 2 1.74832 5.22129 10.4987 
1285 2 3.50451 6.97564 10.4768 
851 1 6.97507 5.24325 8.75572 
888 1 5.24159 6.98124 8.7376 
1246 1 5.24179 5.24344 10.4869 
1289 1 6.98595 6.99215 10.5007 
855 1 10.492 5.23639 8.74515 
892 2 8.72924 6.96558 8.74273 