ITEM: TIMESTEP
1000
ITEM: NUMBER OF ATOMS
4001
ITEM: BOX BOUNDS pp pp pp
0.0000000000000000e+00 3.4945000000000000e+01
0.0000000000000000e+00 3.4945000000000000e+01
0.0000000000000000e+00 3.4945000000000000e+01
ITEM: ATOMS id type x y z 
2 1 1.72679 1.75208 0.00649479 
4 2 1.72887 0.00874939 1.73978 
7 1 3.49098 1.73692 1.74159 
41 1 0.00904377 3.50769 0.00244213 
44 2 1.75015 3.49113 1.74437 
45 2 3.48581 3.49226 0.0129571 
402 2 1.75187 1.75208 3.47699 
445 2 3.50239 3.49273 3.47992 
6 2 5.233 1.74382 0.00526119 
8 2 5.2511 0.010445 1.75447 
11 1 6.9955 1.74875 1.74307 
48 2 5.23954 3.4836 1.74367 
406 1 5.24151 1.7469 3.49214 
409 2 6.9942 0.0211354 3.50173 
449 1 6.97169 3.48448 3.49785 
10 2 8.75142 1.75132 0.00624107 
12 1 8.74519 0.00878273 1.74593 
15 2 10.4887 1.7401 1.74443 
52 2 8.73912 3.48843 1.75787 
53 1 10.4876 3.49404 0.00626936 
410 2 8.72681 1.75201 3.50412 
413 2 10.4739 0.00719663 3.50392 
453 1 10.4839 3.47988 3.49827 
19 1 13.9729 1.73914 1.7475 
56 2 12.2315 3.47678 1.7566 
57 2 13.9638 3.47944 0.0156533 
414 1 12.2278 1.74586 3.50054 
417 2 13.977 0.0120431 3.50473 
457 1 13.9881 3.4716 3.49763 
18 2 15.7164 1.75015 0.00994658 
23 2 17.4708 1.74162 1.76119 
24 1 19.207 0.00640537 1.75703 
60 2 15.7128 3.49136 1.75363 
64 2 19.212 3.47028 1.74323 
418 1 15.7192 1.73293 3.50872 
421 2 17.4726 0.00402239 3.51466 
422 1 19.2157 1.74351 3.50454 
461 2 17.465 3.48472 3.50447 
27 1 20.9546 1.73288 1.72898 
28 1 22.7066 0.00292074 1.75065 
68 2 22.7176 3.46447 1.73887 
425 1 20.961 0.015741 3.4978 
426 1 22.7103 1.74524 3.49365 
465 2 20.9577 3.4722 3.49839 
29 2 24.4658 0.011 0.00205804 
31 1 24.4701 1.74024 1.74236 
32 1 26.2208 0.00285002 1.75658 
72 1 26.2093 3.50391 1.74666 
429 1 24.4766 0.0168442 3.48879 
430 1 26.2194 1.76485 3.49308 
469 2 24.4546 3.48286 3.48628 
34 2 29.6942 1.75216 0.00145162 
35 1 27.9577 1.74457 1.74301 
73 1 27.9587 3.47874 0.0006755 
76 1 29.709 3.49233 1.75611 
433 1 27.9652 0.00668684 3.49159 
434 1 29.7222 1.75651 3.48462 
473 2 27.9679 3.48699 3.48308 
36 1 29.7197 0.000570669 1.74791 
3 1 34.9339 1.75419 1.74505 
39 1 31.4537 1.76075 1.71824 
80 2 33.1884 3.50206 1.72852 
401 2 34.9326 0.00246645 3.4849 
438 2 33.174 1.74228 3.4787 
441 2 34.9307 3.4954 3.48709 
477 1 31.4577 3.49792 3.49132 
437 1 31.4516 0.000273019 3.47992 
43 2 0.0111293 5.24408 1.7328 
47 1 3.507 5.25452 1.7484 
84 2 1.75899 6.99269 1.74144 
442 2 1.75034 5.23914 3.48479 
481 2 0.00774975 6.9984 3.48879 
485 2 3.50532 6.98528 3.50251 
51 2 6.98224 5.22191 1.75249 
88 2 5.26076 6.97978 1.7483 
446 2 5.24503 5.23689 3.4875 
489 2 6.99169 6.9806 3.51776 
50 2 8.73138 5.23717 0.0110996 
55 2 10.4958 5.23553 1.7652 
92 1 8.73337 6.97229 1.76483 
450 2 8.73827 5.22416 3.49794 
493 2 10.4925 6.97918 3.50891 
54 2 12.2382 5.22352 0.00457323 
59 1 13.9761 5.2335 1.74402 
96 2 12.2431 6.99436 1.7363 
97 2 13.9923 6.97483 0.0110087 
454 2 12.249 5.21895 3.50622 
497 1 13.9798 6.99151 3.48599 
58 1 15.7101 5.23887 0.00761415 
63 2 17.4553 5.23522 1.74469 
100 1 15.7249 6.9755 1.76331 
104 2 19.1918 6.97952 1.73067 
458 2 15.7141 5.22832 3.50153 
462 1 19.2161 5.23588 3.48603 
501 2 17.4673 6.97806 3.49564 
67 2 20.9538 5.22225 1.75128 
108 2 22.7105 6.98513 1.73821 
466 2 22.6887 5.22669 3.49206 
505 2 20.9456 6.99221 3.48162 
71 2 24.4565 5.23126 1.74393 
112 2 26.2251 6.97262 1.74348 
470 2 26.2144 5.23312 3.50086 
509 2 24.4703 6.99124 3.47798 
74 1 29.7084 5.23479 0.00510255 
75 2 27.9715 5.23843 1.7473 
116 1 29.6997 6.99638 1.7522 
474 2 29.7043 5.23547 3.49294 
513 1 27.9545 6.98666 3.49667 
79 2 31.4416 5.24574 1.74885 
120 2 33.1895 7.00085 1.73051 
478 2 33.197 5.25162 3.49042 
517 2 31.44 6.9893 3.49438 
83 2 0.00105835 8.73613 1.73616 
87 2 3.52034 8.72034 1.74414 
124 2 1.74464 10.4811 1.73881 
482 2 1.7706 8.74604 3.50073 
521 1 0.00929102 10.4667 3.49113 
525 2 3.50579 10.4852 3.50145 
91 2 6.98776 8.71821 1.75749 
128 2 5.24671 10.4792 1.74482 
129 2 6.99977 10.4823 0.0112326 
486 1 5.25184 8.71638 3.50526 
529 1 6.97401 10.4683 3.47976 
95 2 10.4889 8.7318 1.73459 
132 2 8.75388 10.4628 1.74793 
490 2 8.7214 8.73428 3.50244 
533 1 10.481 10.4597 3.49287 
99 1 13.9839 8.73855 1.73426 
136 1 12.2213 10.4791 1.75035 
137 2 13.9571 10.4822 0.00440588 
494 2 12.2405 8.73244 3.4909 
537 2 13.964 10.4745 3.50758 
103 2 17.4497 8.72825 1.73743 
140 2 15.7058 10.4824 1.75443 
144 2 19.2271 10.4757 1.73652 
498 2 15.7209 8.73342 3.5047 
502 1 19.2053 8.73363 3.47197 
541 2 17.4792 10.4918 3.48956 
107 2 20.955 8.74119 1.72894 
148 1 22.7021 10.4706 1.73944 
506 2 22.6985 8.73645 3.48293 
545 1 20.9599 10.4631 3.49866 
111 2 24.4663 8.72766 1.73067 
152 2 26.1991 10.4767 1.7356 
510 2 26.2231 8.73593 3.50193 
549 2 24.4492 10.4718 3.47202 
114 1 29.7006 8.72921 0.00690223 
115 1 27.9474 8.73521 1.72495 
156 2 29.7145 10.4636 1.73265 
514 2 29.6876 8.73802 3.46615 
553 1 27.9512 10.488 3.49208 
119 1 31.4639 8.73826 1.7345 
160 1 33.2156 10.4791 1.74025 
518 2 33.2027 8.73899 3.48431 
557 2 31.468 10.4709 3.48386 
123 2 0.00304403 12.2163 1.74469 
127 2 3.50101 12.2408 1.73582 
161 2 0.00478691 13.9593 0.010117 
164 2 1.7391 13.9778 1.75125 
522 1 1.73403 12.2265 3.49622 
565 2 3.49214 13.9683 3.49662 
131 2 6.99069 12.2398 1.75924 
168 2 5.24645 13.9804 1.74791 
169 2 6.99714 13.9952 0.013817 
526 1 5.24597 12.2302 3.50404 
569 1 6.97383 13.9812 3.49932 
135 1 10.4711 12.2202 1.75253 
172 2 8.74289 13.9817 1.76285 
530 2 8.72468 12.2259 3.50235 
573 1 10.4853 13.9823 3.50018 
139 2 13.9667 12.2303 1.75475 
176 2 12.2293 13.9647 1.75144 
177 2 13.9764 13.9898 0.0152408 
534 2 12.2128 12.2314 3.49573 
577 1 13.9768 13.9684 3.50685 
143 2 17.4663 12.2429 1.74263 
180 1 15.725 13.9787 1.74471 
184 2 19.2003 13.9948 1.74467 
538 2 15.7262 12.2388 3.50617 
542 2 19.2327 12.2275 3.4896 
581 1 17.4708 13.9791 3.50204 
146 2 22.7171 12.2328 0.0170151 
147 2 20.9685 12.2161 1.76312 
185 2 20.9511 13.9684 0.0166951 
188 2 22.7073 13.9903 1.76522 
546 1 22.7055 12.2174 3.49591 
585 1 20.971 13.9893 3.49705 
150 1 26.2029 12.2138 0.00679862 
151 2 24.4498 12.2207 1.74609 
189 2 24.4702 13.9773 0.00465504 
192 2 26.2103 13.9903 1.74989 
550 2 26.1986 12.2375 3.48672 
589 2 24.444 13.9892 3.50311 
154 1 29.7072 12.2231 0.0135863 
155 2 27.9544 12.2159 1.74664 
193 1 27.9502 13.972 0.00744189 
196 2 29.715 13.9726 1.75261 
554 2 29.7059 12.2256 3.48235 
593 2 27.9612 13.9631 3.49522 
158 1 33.2026 12.2167 0.00644357 
159 2 31.467 12.2094 1.74068 
197 2 31.4459 13.9555 0.00447209 
200 1 33.2035 13.9666 1.73516 
558 2 33.2242 12.2131 3.48847 
561 1 34.9419 13.9719 3.48522 
597 2 31.4709 13.9715 3.48895 
162 1 1.74194 15.734 0.0103665 
163 2 0.00383338 15.7212 1.75407 
167 1 3.48875 15.7132 1.75922 
201 2 0.00371835 17.4756 0.00110645 
202 2 1.74408 19.207 0.00494696 
203 2 0.00475162 19.2273 1.7571 
204 1 1.75191 17.4622 1.74662 
205 1 3.49258 17.4685 0.00524156 
207 1 3.47173 19.2258 1.75028 
562 2 1.7455 15.7079 3.48582 
601 2 0.00598913 17.47 3.50652 
602 2 1.73948 19.2308 3.49054 
605 1 3.48033 17.4785 3.499 
166 1 5.24706 15.7414 0.0112329 
171 1 6.989 15.7277 1.76943 
206 2 5.22541 19.212 0.00145279 
208 2 5.21297 17.4794 1.76831 
209 2 6.9757 17.4697 0.0096928 
211 2 6.96657 19.2233 1.75357 
566 2 5.24494 15.7312 3.49198 
606 1 5.21069 19.2369 3.49528 
609 1 6.98122 17.4941 3.4929 
175 2 10.4792 15.7075 1.73811 
210 2 8.73161 19.2178 0.0157295 
212 2 8.72885 17.4696 1.76036 
215 2 10.4822 19.2185 1.76384 
570 1 8.73824 15.7219 3.49931 
610 1 8.72178 19.224 3.49306 
613 2 10.4784 17.4689 3.49259 
179 1 13.9754 15.725 1.75552 
214 2 12.2395 19.2215 0.0158885 
216 2 12.2494 17.4707 1.75631 
219 2 13.9943 19.2011 1.76191 
574 2 12.2282 15.7224 3.49974 
614 1 12.2346 19.2187 3.49842 
617 1 13.974 17.4753 3.51043 
178 2 15.7224 15.7429 0.00728679 
183 2 17.4588 15.734 1.74834 
220 1 15.714 17.4779 1.74628 
222 2 19.2124 19.2171 0.00221709 
223 1 17.4657 19.2131 1.74 
224 1 19.2125 17.4735 1.75245 
578 2 15.7124 15.7183 3.49237 
582 2 19.2246 15.7337 3.50965 
618 1 15.7385 19.213 3.50694 
621 2 17.4628 17.4734 3.48977 
622 2 19.212 19.2126 3.48681 
187 2 20.9701 15.7455 1.76233 
225 2 20.9663 17.4779 0.011943 
226 2 22.7384 19.2209 0.00554402 
227 1 20.9716 19.2109 1.7507 
228 1 22.7244 17.4707 1.74543 
586 1 22.7082 15.7395 3.50524 
625 2 20.979 17.4802 3.50444 
626 2 22.7354 19.2102 3.49973 
191 2 24.4649 15.7428 1.74572 
230 1 26.211 19.2187 0.00514542 
231 1 24.4782 19.2072 1.75777 
232 1 26.2253 17.4657 1.7537 
590 1 26.2284 15.7144 3.51371 
629 1 24.4804 17.4634 3.49219 
630 1 26.2199 19.2236 3.50381 
195 2 27.9553 15.7314 1.74287 
235 1 27.9594 19.2125 1.74398 
236 2 29.6973 17.4708 1.7558 
594 2 29.7065 15.7196 3.50945 
633 2 27.9538 17.4767 3.49796 
634 2 29.7 19.2228 3.50479 
199 2 31.4609 15.7206 1.74337 
239 2 31.4426 19.2256 1.74985 
240 2 33.2041 17.4725 1.74295 
598 2 33.2067 15.7292 3.50005 
637 2 31.4582 17.4741 3.50473 
638 1 33.2051 19.2096 3.49005 
242 2 1.72284 22.7243 0.00200397 
244 1 1.73068 20.9707 1.73661 
247 2 3.495 22.7024 1.75321 
642 2 1.72963 22.725 3.48754 
645 2 3.4747 20.9759 3.4915 
248 1 5.24228 20.9619 1.7317 
251 1 6.9886 22.711 1.73973 
646 2 5.25294 22.7032 3.49174 
649 2 6.97924 20.9671 3.49868 
250 2 8.73727 22.716 0.0171228 
252 2 8.71963 20.9778 1.75977 
255 2 10.4652 22.7218 1.75223 
650 1 8.72101 22.7245 3.49207 
653 2 10.4716 20.9588 3.49807 
254 2 12.2349 22.7206 0.0116321 
256 2 12.2327 20.9679 1.7565 
257 2 13.992 20.9589 0.0115698 
259 2 13.9803 22.7225 1.77226 
654 2 12.2196 22.7162 3.49877 
657 2 13.9895 20.9539 3.50278 
258 2 15.7336 22.7117 0.0023403 
260 2 15.7429 20.9474 1.74482 
263 2 17.4797 22.716 1.75573 
264 2 19.2177 20.9459 1.74697 
658 2 15.7377 22.7001 3.5145 
661 1 17.4753 20.955 3.50389 
662 2 19.2299 22.714 3.49669 
265 2 20.9718 20.9777 0.0140926 
266 1 22.7078 22.7084 0.0128783 
267 2 20.9804 22.7136 1.75464 
268 2 22.7325 20.956 1.75597 
665 1 20.9796 20.9434 3.49484 
666 1 22.7096 22.7243 3.50572 
269 1 24.4796 20.974 0.00428884 
270 1 26.2216 22.7243 0.0154168 
271 1 24.4589 22.7244 1.76403 
272 1 26.2173 20.9763 1.76374 
669 2 24.4586 20.9725 3.48679 
670 2 26.2224 22.7236 3.4921 
273 2 27.9416 20.9605 0.00423611 
274 2 29.7135 22.7149 0.00449643 
275 2 27.9697 22.7142 1.76033 
276 2 29.7075 20.9697 1.74113 
673 2 27.966 20.9593 3.50177 
674 1 29.7154 22.7073 3.49532 
243 2 34.9218 22.7168 1.73728 
279 1 31.46 22.7096 1.746 
280 1 33.1855 20.9627 1.74061 
641 1 34.9365 20.9672 3.49043 
677 2 31.4618 20.9617 3.49737 
678 2 33.1858 22.709 3.48433 
284 1 1.74817 24.4686 1.74973 
285 2 3.48443 24.4656 0.000788016 
287 2 3.50133 26.2018 1.75444 
682 1 1.7344 26.19 3.4931 
685 1 3.50803 24.4531 3.49417 
286 1 5.24553 26.1869 0.00735357 
288 2 5.24825 24.4506 1.7445 
289 2 6.98808 24.4705 0.0126674 
291 1 6.98132 26.2257 1.74895 
686 2 5.24108 26.216 3.49353 
689 1 6.99076 24.4697 3.48593 
290 2 8.71801 26.2349 0.0128978 
292 1 8.72937 24.472 1.74799 
295 2 10.4737 26.2284 1.74667 
690 2 8.73413 26.2246 3.48142 
693 2 10.4687 24.4695 3.49327 
294 2 12.2453 26.2212 0.00695707 
296 2 12.2161 24.4815 1.75411 
297 2 13.9928 24.4758 0.0100879 
299 2 13.9863 26.2224 1.764 
694 1 12.2304 26.212 3.49986 
697 2 13.9827 24.4732 3.52137 
298 1 15.7353 26.2038 0.00346149 
300 2 15.7429 24.4653 1.751 
303 1 17.4686 26.2148 1.73603 
304 2 19.2151 24.4819 1.74047 
698 2 15.7152 26.2155 3.49916 
701 1 17.4633 24.4715 3.51264 
702 2 19.2103 26.211 3.50543 
306 1 22.7085 26.2299 0.00651876 
307 2 20.9595 26.223 1.75234 
308 2 22.7139 24.4656 1.75332 
705 1 20.9736 24.4808 3.49228 
706 2 22.734 26.2018 3.4955 
309 2 24.4447 24.4544 0.0123287 
310 2 26.2029 26.202 0.00459826 
311 2 24.4777 26.2059 1.74963 
312 2 26.2215 24.4613 1.76407 
709 1 24.4891 24.4757 3.50135 
710 1 26.2179 26.2269 3.50256 
313 2 27.966 24.4705 0.00314598 
314 2 29.7165 26.2258 0.00128 
315 1 27.9645 26.217 1.74713 
316 2 29.7196 24.4644 1.75986 
713 2 27.9687 24.4748 3.49767 
714 1 29.7194 26.2234 3.49947 
283 2 34.9333 26.1905 1.73119 
319 2 31.4465 26.2101 1.73872 
320 1 33.1748 24.4606 1.72992 
681 1 34.9136 24.4678 3.48277 
717 2 31.4568 24.4644 3.50003 
718 2 33.1894 26.2179 3.48304 
324 2 1.7384 27.9338 1.74273 
327 2 3.49404 29.6957 1.75534 
722 2 1.75175 29.693 3.49759 
725 2 3.48227 27.9558 3.49224 
326 1 5.22745 29.7051 0.00360177 
328 2 5.24046 27.9598 1.73913 
331 2 6.98027 29.6976 1.74236 
726 1 5.22669 29.7081 3.5079 
729 2 6.98391 27.9632 3.48977 
332 1 8.72049 27.9753 1.74178 
333 2 10.4948 27.9808 0.0124637 
335 2 10.4789 29.7124 1.75144 
730 1 8.72896 29.7107 3.49733 
733 2 10.4997 27.9758 3.47676 
334 2 12.235 29.7211 0.00954066 
336 1 12.251 27.9669 1.74842 
339 2 13.9779 29.7105 1.74239 
734 1 12.246 29.7177 3.49693 
737 1 13.9747 27.9673 3.50898 
338 1 15.7215 29.7093 0.0126694 
340 2 15.7219 27.9576 1.73345 
342 1 19.2311 29.7046 0.00723104 
343 2 17.4865 29.6939 1.75757 
344 1 19.2168 27.9569 1.75079 
738 2 15.7241 29.7106 3.49373 
741 2 17.4647 27.9518 3.49095 
742 2 19.2206 29.7067 3.49967 
345 2 20.9604 27.973 0.00671757 
346 2 22.697 29.7152 0.00516617 
347 1 20.9668 29.7196 1.74909 
348 2 22.7039 27.9671 1.76234 
745 2 20.963 27.9579 3.50919 
746 2 22.7074 29.7176 3.5024 
349 2 24.4597 27.9572 0.00504955 
351 2 24.4618 29.7136 1.75126 
352 2 26.2239 27.9667 1.74851 
749 2 24.4692 27.9499 3.50355 
750 2 26.2194 29.7172 3.49146 
353 2 27.966 27.9664 0.00320682 
355 1 27.9607 29.7231 1.749 
356 2 29.708 27.9679 1.74849 
753 2 27.9662 27.9623 3.48888 
754 2 29.7164 29.7192 3.48299 
323 2 34.9406 29.7059 1.74687 
357 1 31.4516 27.967 0.0120018 
359 2 31.4643 29.714 1.74068 
360 1 33.1968 27.9577 1.73425 
721 2 34.9374 27.9414 3.4886 
757 2 31.4673 27.9702 3.49138 
758 1 33.2099 29.7033 3.50475 
363 1 0.00716723 33.1802 1.74014 
364 2 1.739 31.4474 1.74654 
365 2 3.49676 31.4498 0.0121336 
367 2 3.47932 33.2111 1.74446 
405 2 3.49124 34.9409 3.49965 
762 2 1.73345 33.1974 3.49291 
765 1 3.48722 31.4539 3.48608 
366 1 5.24171 33.2122 0.010717 
368 2 5.23697 31.454 1.75024 
369 2 6.98478 31.4502 0.00342037 
371 2 7.0009 33.2188 1.74694 
766 2 5.23639 33.1972 3.4807 
769 2 6.97468 31.4429 3.5139 
13 2 10.4829 34.9368 0.00725699 
370 2 8.73968 33.184 0.0125384 
372 2 8.73064 31.4427 1.76032 
373 1 10.4721 31.4534 0.00674728 
375 1 10.4694 33.1833 1.76119 
770 2 8.73363 33.1879 3.4961 
773 2 10.4793 31.4436 3.49927 
16 2 12.2225 34.9349 1.75253 
17 2 13.9731 34.9273 0.000350325 
374 1 12.2303 33.197 0.0109697 
376 2 12.2285 31.457 1.75315 
379 1 13.9858 33.1852 1.76149 
774 2 12.2329 33.1938 3.49711 
777 2 13.987 31.4487 3.50223 
20 2 15.7263 34.9429 1.76196 
380 2 15.7286 31.4533 1.76024 
381 2 17.4759 31.4342 0.0116169 
383 2 17.4639 33.2008 1.75179 
384 2 19.2171 31.4573 1.73731 
778 2 15.7218 33.2093 3.51638 
781 1 17.4744 31.4612 3.5068 
782 2 19.2092 33.2157 3.49723 
25 2 20.9587 34.9377 0.000832107 
385 1 20.9668 31.4628 0.00064757 
387 2 20.9589 33.2129 1.74282 
388 2 22.7088 31.4736 1.74495 
785 2 20.9544 31.4714 3.4866 
786 2 22.7251 33.2271 3.48902 
391 2 24.4694 33.2232 1.74616 
392 2 26.2166 31.4739 1.73812 
789 2 24.4685 31.4738 3.49477 
790 1 26.2172 33.1977 3.5051 
395 2 27.9745 33.2139 1.73844 
396 2 29.7189 31.4628 1.73673 
793 2 27.977 31.4709 3.4918 
794 1 29.724 33.2004 3.48936 
1 1 34.9395 34.9348 0.00648565 
37 2 31.4635 34.9415 0.00123522 
40 2 33.195 34.9292 1.73801 
398 2 33.1998 33.1732 0.00179531 
399 1 31.4614 33.1782 1.73698 
400 1 33.2111 31.4474 1.75399 
761 2 34.9437 31.4535 3.5023 
797 1 31.4633 31.4483 3.48769 
798 1 33.2091 33.2062 3.48901 
404 2 1.74013 0.0145797 5.25655 
407 2 3.50228 1.74813 5.22617 
444 1 1.74352 3.49184 5.22415 
802 2 1.74718 1.74728 6.99007 
805 1 3.49838 0.0108883 6.98533 
845 2 3.48074 3.49315 6.99146 
408 1 5.239 0.00152383 5.22428 
411 1 6.98233 1.74029 5.25334 
448 2 5.23496 3.48674 5.2481 
806 1 5.23273 1.74461 6.98119 
809 1 6.98321 0.00458144 6.99271 
849 2 6.98269 3.4856 6.99858 
415 2 10.487 1.75243 5.2529 
452 2 8.73216 3.48717 5.23777 
810 1 8.73384 1.75291 6.99093 
853 2 10.4915 3.49338 6.99589 
419 1 13.9605 1.74151 5.26031 
456 2 12.2407 3.48546 5.25256 
814 1 12.2234 1.7447 7.0063 
857 1 13.9872 3.46909 7.00111 
420 1 15.7147 0.0165733 5.26273 
423 1 17.4755 1.75394 5.24959 
424 2 19.2107 0.0078683 5.23949 
460 2 15.7115 3.47407 5.25143 
464 2 19.2346 3.493 5.2428 
818 2 15.7286 1.75081 6.99205 
821 2 17.4763 0.00913245 7.00324 
822 2 19.2214 1.74997 6.99384 
861 2 17.465 3.49836 7.00634 
427 1 20.9755 1.73592 5.25257 
428 2 22.7281 0.017832 5.23655 
468 1 22.6983 3.49305 5.22964 
826 1 22.7245 1.74436 6.99459 
865 2 20.9802 3.49052 6.9808 
431 2 24.461 1.75497 5.22887 
432 1 26.2223 0.00957347 5.23655 
472 2 26.2031 3.49957 5.23644 
829 2 24.4655 0.00141863 6.98674 
830 2 26.2136 1.74879 6.98165 
869 2 24.4404 3.50282 6.99155 
435 1 27.9592 1.7501 5.23746 
436 2 29.7195 0.00444092 5.22718 
476 2 29.7097 3.49173 5.23358 
833 2 27.9689 0.0130656 6.97867 
834 1 29.718 1.75731 6.98186 
873 2 27.9678 3.50068 6.97858 
403 2 34.9329 1.75172 5.23828 
439 1 31.4605 1.75533 5.24572 
440 1 33.1876 0.00890943 5.22196 
480 2 33.2039 3.48897 5.2451 
801 1 34.9268 0.00893012 6.9854 
837 2 31.4608 0.00310393 6.96902 
838 2 33.1911 1.74909 7.00084 
841 1 34.9411 3.4934 6.98473 
877 2 31.4572 3.51649 6.98793 
443 2 0.00105615 5.23428 5.24516 
447 2 3.49295 5.23378 5.22895 
484 2 1.75827 6.97869 5.24251 
842 2 1.74324 5.23741 6.98035 
881 2 0.00317957 6.97812 6.98709 
885 1 3.49064 6.97228 6.98363 
451 2 6.99395 5.22944 5.2535 
488 1 5.24386 6.9774 5.24229 
846 2 5.23849 5.24547 7.00314 
889 1 6.991 6.96646 6.98867 
455 1 10.4812 5.22913 5.24159 
492 2 8.73016 6.98589 5.24608 
850 2 8.74066 5.22572 7.00792 
893 1 10.4734 6.97017 6.99062 
459 1 13.986 5.23448 5.25903 
496 2 12.2401 6.97765 5.25832 
854 2 12.2369 5.22995 6.99426 
897 1 13.9787 6.98587 6.9974 
463 2 17.4782 5.22541 5.26138 
500 2 15.712 6.98946 5.25271 
504 2 19.2149 6.98251 5.24243 
858 1 15.7119 5.23059 6.99971 
862 1 19.2341 5.22485 7.00292 
901 1 17.4879 6.98287 6.98908 
467 1 20.9575 5.25207 5.24021 
508 2 22.7214 6.97537 5.24211 
866 2 22.6943 5.23944 6.98702 
905 2 20.9529 6.99085 6.98865 
471 2 24.4549 5.25219 5.2347 
512 1 26.2123 7.00031 5.22746 
870 2 26.2192 5.26376 6.9783 
909 2 24.4685 7.00385 6.98649 
475 1 27.9563 5.23545 5.23395 
516 2 29.6907 6.98388 5.23556 
874 1 29.7068 5.25827 6.97918 
913 2 27.9608 6.99882 6.97777 
479 2 31.4461 5.23988 5.24762 
520 2 33.196 7.00406 5.23928 
878 2 33.1921 5.25036 6.99638 
917 1 31.4514 7.00032 6.97797 
483 2 0.00847612 8.73912 5.23909 
487 2 3.50895 8.72367 5.25976 
524 2 1.73774 10.484 5.24491 
882 1 1.73818 8.72248 6.99133 
925 1 3.49048 10.4764 6.9834 
491 1 6.98208 8.74039 5.25297 
528 2 5.25432 10.4686 5.25793 
886 1 5.24921 8.71303 6.99765 
929 1 6.97805 10.4883 7.00335 
495 2 10.4783 8.73033 5.25594 
532 1 8.72423 10.4831 5.2467 
890 2 8.7222 8.74322 6.98598 
933 1 10.4845 10.481 7.00337 
499 1 13.9728 8.74114 5.2544 
536 2 12.2225 10.4834 5.24422 
894 2 12.2371 8.73195 6.9986 
937 1 13.979 10.4943 6.99248 
503 2 17.4689 8.72863 5.24917 
540 1 15.7315 10.4702 5.24766 
544 2 19.2106 10.4707 5.23076 
898 1 15.7089 8.73402 6.98443 
902 1 19.2334 8.74623 6.9868 
941 2 17.4658 10.4623 6.98544 
507 2 20.9647 8.72826 5.22984 
548 2 22.7105 10.485 5.21959 
906 2 22.7126 8.73014 6.99014 
945 2 20.9663 10.4794 6.96709 
511 1 24.4443 8.73387 5.22484 
552 2 26.2135 10.4782 5.22974 
910 1 26.2145 8.73906 6.96253 
949 2 24.4599 10.4691 6.98791 
515 1 27.9723 8.73563 5.23551 
556 2 29.7098 10.494 5.22399 
914 2 29.7015 8.72834 6.99499 
953 2 27.9749 10.4734 6.96527 
519 2 31.4368 8.74055 5.23072 
560 1 33.2028 10.4651 5.24159 
918 2 33.2003 8.74423 6.99284 
921 2 34.941 10.4832 6.98644 
957 1 31.4436 10.4755 6.98262 
527 2 3.48756 12.2237 5.24049 
564 1 1.74685 13.9626 5.2368 
922 2 1.7442 12.2266 6.97781 
965 2 3.48292 13.97 6.99632 
961 1 -0.000672597 13.9738 6.97979 
531 2 6.98198 12.2198 5.25022 
568 2 5.22972 13.9834 5.25295 
926 1 5.23496 12.2362 6.99829 
969 1 6.97981 13.9883 6.99143 
535 2 10.4746 12.2136 5.23095 
572 2 8.73327 13.9671 5.23663 
930 1 8.74207 12.2256 6.99189 
973 2 10.4658 13.9662 6.97382 
539 2 13.9773 12.2248 5.25186 
576 1 12.2128 13.9794 5.24851 
934 2 12.2139 12.2237 6.99224 
977 2 13.9709 13.9607 6.97875 
543 2 17.4779 12.2411 5.2422 
580 1 15.7283 13.9771 5.2569 
584 2 19.2233 13.9942 5.2293 
938 2 15.7269 12.2125 6.98514 
942 2 19.2235 12.2259 6.98351 
981 2 17.4772 13.9878 6.98129 
547 1 20.9557 12.2194 5.22439 
588 1 22.7014 13.9678 5.24122 
946 2 22.7119 12.2214 6.96718 
985 2 20.9628 13.9904 6.96589 
551 2 24.4551 12.2198 5.24079 
592 1 26.2035 13.9603 5.23513 
950 2 26.2104 12.2172 6.98037 
989 2 24.4669 13.9717 6.98867 
555 1 27.9634 12.2395 5.23043 
596 1 29.7236 13.9594 5.23914 
954 2 29.7177 12.2221 6.97668 
993 2 27.957 13.9569 6.97436 
523 1 34.9428 12.2166 5.239 
559 2 31.464 12.2148 5.23581 
600 2 33.2149 13.9699 5.23283 
958 1 33.1971 12.2203 6.9795 
997 2 31.4725 13.961 6.98808 
563 1 0.00607423 15.7154 5.23603 
567 2 3.47816 15.7249 5.22875 
604 2 1.73468 17.4729 5.23411 
607 2 3.48722 19.2376 5.23073 
962 2 1.73472 15.7115 6.98468 
1001 1 0.00178641 17.4733 6.99844 
1002 2 1.73012 19.2203 6.99477 
1005 2 3.47783 17.4661 6.96648 
571 2 6.98004 15.733 5.23392 
608 1 5.23411 17.4588 5.22955 
611 1 6.96811 19.2164 5.23153 
966 1 5.2211 15.7318 6.98838 
1006 2 5.23109 19.2079 6.96318 
1009 2 6.97199 17.4574 6.98038 
575 2 10.4738 15.7317 5.24068 
612 2 8.71681 17.4914 5.23514 
615 1 10.4821 19.2086 5.22749 
970 2 8.71332 15.7152 6.98402 
1010 2 8.72234 19.2199 6.98571 
1013 2 10.4671 17.4769 6.98746 
579 2 13.9826 15.7095 5.24377 
616 2 12.2287 17.4686 5.2401 
619 2 13.9701 19.2278 5.2373 
974 2 12.2253 15.7223 6.98785 
1014 2 12.2213 19.2205 6.97893 
1017 2 13.9891 17.4678 6.97879 
583 1 17.462 15.7283 5.23313 
620 2 15.7342 17.4637 5.23539 
623 2 17.4747 19.2147 5.2428 
624 1 19.209 17.4753 5.25139 
978 2 15.7374 15.7214 6.99749 
982 1 19.2179 15.7215 6.97386 
1018 2 15.7245 19.2165 6.99619 
1021 1 17.4677 17.4651 6.99083 
1022 2 19.231 19.197 6.99928 
587 1 20.976 15.7428 5.23476 
627 2 20.9805 19.2041 5.24227 
628 1 22.7304 17.4804 5.25455 
986 2 22.7032 15.7376 6.97209 
1025 1 20.9663 17.4662 6.99246 
1026 1 22.7219 19.2186 6.99115 
591 2 24.4533 15.7184 5.23904 
631 2 24.4721 19.2148 5.23543 
632 2 26.2158 17.4555 5.23039 
990 2 26.2139 15.7066 6.98538 
1029 1 24.4817 17.4662 6.98336 
1030 2 26.209 19.2168 6.97518 
595 2 27.9746 15.7049 5.24389 
635 1 27.9574 19.2098 5.24963 
636 1 29.71 17.4775 5.24701 
994 2 29.7224 15.7143 6.98277 
1033 2 27.9545 17.4665 6.97678 
1034 2 29.7149 19.2253 6.99164 
599 2 31.462 15.7251 5.25442 
603 1 34.9415 19.213 5.22968 
639 2 31.4627 19.2106 5.2504 
640 1 33.2094 17.4722 5.25746 
998 1 33.2119 15.7172 6.98005 
1037 2 31.4678 17.4712 6.98929 
1038 2 33.2102 19.2174 6.99543 
644 1 1.72777 20.9764 5.25699 
647 1 3.4782 22.7235 5.23032 
1042 2 1.72265 22.7208 6.98543 
1045 2 3.48941 20.9818 6.98338 
648 1 5.23582 20.9833 5.24392 
651 1 6.99076 22.7141 5.23089 
1046 2 5.24353 22.7345 6.97789 
1049 2 6.97972 20.9731 6.98737 
652 1 8.73196 20.9614 5.23162 
655 2 10.4678 22.7051 5.23925 
1050 2 8.71917 22.712 6.97818 
1053 2 10.4732 20.9557 6.98691 
656 2 12.2134 20.9661 5.24663 
659 1 13.9668 22.7042 5.24533 
1054 2 12.2277 22.7188 6.9984 
1057 2 13.9734 20.976 6.99122 
660 2 15.7336 20.9684 5.24879 
663 1 17.4933 22.6978 5.2487 
664 2 19.2363 20.9511 5.23754 
1058 2 15.7227 22.7172 6.98825 
1061 2 17.4874 20.9559 6.99238 
1062 2 19.2332 22.7248 6.98925 
667 2 20.9673 22.7286 5.23028 
668 1 22.7167 20.9732 5.23428 
1065 2 20.9773 20.9619 6.9797 
1066 2 22.7168 22.7132 6.97814 
671 2 24.48 22.7307 5.22416 
672 2 26.2179 20.9767 5.23866 
1069 2 24.4632 20.9588 6.97837 
1070 2 26.2338 22.7151 6.98489 
675 1 27.9723 22.714 5.24015 
676 2 29.7063 20.9614 5.25389 
1073 2 27.9763 20.9747 6.98551 
1074 1 29.7115 22.7167 6.99162 
643 1 34.9299 22.7222 5.22086 
679 2 31.4475 22.716 5.24817 
680 2 33.21 20.9615 5.22963 
1041 2 34.9302 20.9634 6.97829 
1077 1 31.4569 20.9615 6.98599 
1078 1 33.2013 22.71 6.98435 
684 2 1.72617 24.4504 5.2122 
687 2 3.50073 26.2003 5.22879 
1082 2 1.75115 26.1989 6.97645 
1085 2 3.4896 24.4653 6.96625 
688 2 5.25428 24.4571 5.22874 
691 1 6.9973 26.2344 5.22937 
1086 1 5.24668 26.201 6.97948 
1089 2 6.99113 24.4781 6.97924 
692 2 8.72263 24.4609 5.22503 
695 2 10.4789 26.2189 5.24049 
1090 2 8.71675 26.228 6.98972 
1093 2 10.4793 24.4682 6.98918 
696 2 12.233 24.4634 5.24549 
699 1 13.9577 26.2248 5.25075 
1094 2 12.2216 26.214 6.99022 
1097 1 13.9697 24.4647 6.99482 
700 2 15.7186 24.4564 5.25867 
703 1 17.4635 26.2145 5.23947 
704 2 19.2242 24.4797 5.23944 
1098 2 15.7302 26.2089 6.99009 
1101 2 17.4778 24.4688 6.9739 
1102 1 19.2196 26.2051 6.97946 
707 1 20.985 26.2049 5.24254 
708 2 22.7276 24.4709 5.24347 
1105 1 20.9762 24.4709 6.99902 
1106 2 22.7022 26.2296 6.99565 
711 1 24.4691 26.2191 5.24438 
712 1 26.2373 24.4676 5.23781 
1109 2 24.4602 24.4702 6.97074 
1110 2 26.2213 26.2149 6.96753 
715 2 27.9648 26.2145 5.23216 
716 2 29.7176 24.463 5.2344 
1113 2 27.9797 24.4555 6.99173 
1114 2 29.714 26.2038 6.97583 
683 2 34.9234 26.1895 5.23596 
719 1 31.4686 26.2218 5.23995 
720 1 33.1781 24.4489 5.24207 
1081 2 34.919 24.4473 6.98659 
1117 1 31.4502 24.4648 6.98597 
1118 2 33.1945 26.197 6.99182 
723 2 0.00821062 29.7025 5.24579 
724 2 1.73407 27.9434 5.23721 
727 1 3.48379 29.7065 5.24358 
1122 2 1.74089 29.706 6.98937 
1125 2 3.48903 27.947 6.98192 
728 2 5.23288 27.9575 5.24302 
731 2 6.98625 29.6998 5.24894 
1126 2 5.24031 29.698 6.9777 
1129 2 6.98597 27.9552 7.00333 
732 2 8.74018 27.9818 5.23372 
735 2 10.4726 29.7204 5.24085 
1130 1 8.72948 29.7047 7.01149 
1133 2 10.4715 27.9672 7.00669 
736 2 12.2272 27.9755 5.2346 
739 2 13.9868 29.7158 5.24564 
1134 2 12.2128 29.7167 6.9786 
1137 2 13.9741 27.9559 6.98715 
740 2 15.7288 27.9664 5.25193 
743 1 17.4661 29.7114 5.23283 
744 1 19.2208 27.95 5.24244 
1138 2 15.7475 29.7071 6.99325 
1141 2 17.4836 27.9541 6.99567 
1142 1 19.1982 29.7014 6.97542 
747 1 20.966 29.7257 5.24148 
748 1 22.7064 27.9636 5.23872 
1145 1 20.9621 27.9751 6.98238 
1146 1 22.7265 29.7091 6.97458 
751 2 24.4578 29.6975 5.23437 
752 1 26.2213 27.97 5.23667 
1149 2 24.4575 27.9649 6.97301 
1150 2 26.2057 29.7119 6.99228 
755 2 27.9686 29.7105 5.2431 
756 2 29.7209 27.9691 5.24921 
1153 2 27.9676 27.96 6.98916 
1154 2 29.7173 29.7229 7.00566 
759 2 31.4598 29.7072 5.24577 
760 1 33.2098 27.9615 5.24454 
1121 2 34.9421 27.9561 6.99642 
1157 2 31.4694 27.9518 7.00197 
1158 2 33.2067 29.6989 6.98863 
764 2 1.74552 31.4521 5.24745 
767 2 3.4894 33.1984 5.23584 
1162 2 1.73236 33.2117 6.99498 
1165 2 3.4942 31.4609 6.97714 
768 2 5.2354 31.457 5.24676 
771 2 6.98546 33.2056 5.24801 
1166 2 5.24317 33.2135 6.99416 
1169 1 6.98268 31.4467 6.98914 
412 2 8.72549 34.9393 5.25813 
772 1 8.7288 31.4487 5.25079 
775 2 10.4926 33.1905 5.24778 
813 1 10.4908 34.9385 6.98326 
1170 2 8.73547 33.2003 6.9985 
1173 2 10.4643 31.4616 6.99575 
416 2 12.2374 34.9348 5.25363 
776 1 12.2247 31.4571 5.24312 
779 1 13.9744 33.1923 5.24607 
817 2 13.959 34.9418 6.99569 
1174 1 12.2326 33.1864 6.99486 
1177 2 13.9752 31.459 6.98369 
780 1 15.7267 31.454 5.24599 
783 2 17.4479 33.2017 5.26516 
784 2 19.2003 31.4476 5.25094 
1178 2 15.7154 33.2017 7.0038 
1181 2 17.479 31.4509 6.99846 
1182 1 19.2119 33.2019 6.98202 
787 2 20.9617 33.2029 5.23827 
788 2 22.7157 31.4514 5.24164 
825 2 20.9738 34.9408 6.9792 
1185 2 20.9528 31.4402 6.98741 
1186 2 22.7039 33.1992 6.9938 
791 2 24.4748 33.2103 5.23852 
792 2 26.228 31.4574 5.24273 
1189 2 24.4637 31.4597 6.98829 
1190 2 26.232 33.218 6.98083 
795 2 27.9825 33.2154 5.24148 
796 1 29.7136 31.4581 5.23303 
1193 2 27.978 31.4652 6.99387 
1194 1 29.7144 33.1959 6.99217 
763 2 34.9291 33.2073 5.24184 
799 1 31.4596 33.1917 5.23437 
800 2 33.1956 31.451 5.22867 
1161 1 34.9323 31.4472 6.99432 
1197 2 31.4554 31.4555 6.98171 
1198 2 33.1946 33.2102 6.97447 
803 1 0.00425396 1.74456 8.72351 
804 1 1.73992 0.000509343 8.73147 
807 2 3.49893 1.74915 8.73476 
844 2 1.73771 3.48999 8.7392 
1201 2 0.0074769 0.0210532 10.4631 
1202 1 1.74087 1.76088 10.4683 
1205 2 3.48296 0.0146003 10.4682 
1241 1 0.000673044 3.4957 10.477 
1245 1 3.50331 3.48263 10.4941 
808 1 5.23532 0.00592178 8.72794 
811 1 6.97102 1.74016 8.72662 
848 1 5.24559 3.49835 8.73619 
1206 1 5.24038 1.74169 10.4822 
1209 2 6.98273 0.0109205 10.477 
1249 1 6.97751 3.47637 10.4819 
812 1 8.745 0.00566216 8.72599 
815 2 10.4728 1.74346 8.73412 
852 2 8.72827 3.48795 8.75091 
1210 2 8.72047 1.73994 10.4786 
1253 1 10.4852 3.46988 10.4774 
819 2 13.9824 1.73389 8.72965 
856 1 12.2298 3.48808 8.72855 
1214 2 12.2308 1.74183 10.4776 
1257 2 13.969 3.49994 10.4761 
823 1 17.4801 1.75677 8.75874 
860 2 15.715 3.49003 8.7592 
864 2 19.238 3.48487 8.75437 
1218 2 15.736 1.73114 10.491 
1222 1 19.2301 1.74292 10.5007 
1261 2 17.4753 3.48584 10.5007 
827 2 20.9662 1.73627 8.73024 
868 1 22.7003 3.49677 8.73216 
1226 2 22.7155 1.75802 10.4704 
1265 2 20.984 3.49138 10.4978 
831 2 24.452 1.74338 8.73368 
832 1 26.2209 0.0172978 8.73765 
872 2 26.1889 3.50354 8.72655 
1229 2 24.4632 0.0128345 10.4838 
1230 1 26.1939 1.76543 10.4719 
1269 1 24.449 3.50062 10.4637 
835 2 27.9612 1.75224 8.73168 
836 2 29.7089 0.00509659 8.72344 
876 2 29.7169 3.51167 8.7285 
1233 2 27.9495 0.0283945 10.4799 
1234 1 29.6989 1.75751 10.478 
1273 2 27.9488 3.50375 10.4769 
839 2 31.4553 1.76905 8.736 
840 1 33.186 0.00989596 8.73768 
880 1 33.1939 3.51451 8.73717 
1237 2 31.4535 0.0347906 10.4807 
1238 1 33.2062 1.7678 10.4636 
1277 1 31.4437 3.48699 10.4813 
843 1 0.00875156 5.24672 8.73232 
847 2 3.4984 5.23336 8.74505 
884 2 1.75953 6.97874 8.73262 
1242 2 1.74843 5.22169 10.4988 
1285 2 3.50473 6.97632 10.4772 
851 1 6.97479 5.24369 8.75581 
888 1 5.24169 6.98193 8.738 
1246 1 5.24172 5.24394 10.4871 
1289 1 6.98605 6.99269 10.5011 
855 1 10.4914 5.23639 8.74494 
892 2 8.72906 6.96594 8.74294 
1250 1 8.74004 5.22896 10.4898 