ITEM: TIMESTEP
0
ITEM: NUMBER OF ATOMS
4001
ITEM: BOX BOUNDS pp pp pp
0.0000000000000000e+00 3.4945000000000000e+01
0.0000000000000000e+00 3.4945000000000000e+01
0.0000000000000000e+00 3.4945000000000000e+01
ITEM: ATOMS id type x y z 
1 1 0 0 0 
2 1 1.74725 1.74725 0 
3 1 0 1.74725 1.74725 
4 2 1.74725 0 1.74725 
5 2 3.4945 0 0 
6 2 5.24175 1.74725 0 
7 1 3.4945 1.74725 1.74725 
8 2 5.24175 0 1.74725 
9 2 6.989 0 0 
10 2 8.73625 1.74725 0 
11 1 6.989 1.74725 1.74725 
12 1 8.73625 0 1.74725 
13 2 10.4835 0 0 
14 1 12.2308 1.74725 0 
15 2 10.4835 1.74725 1.74725 
16 2 12.2308 0 1.74725 
17 2 13.978 0 0 
18 2 15.7253 1.74725 0 
19 1 13.978 1.74725 1.74725 
20 2 15.7253 0 1.74725 
21 2 17.4725 0 0 
22 1 19.2198 1.74725 0 
23 2 17.4725 1.74725 1.74725 
24 1 19.2198 0 1.74725 
25 2 20.967 0 0 
26 1 22.7142 1.74725 0 
27 1 20.967 1.74725 1.74725 
28 1 22.7142 0 1.74725 
29 2 24.4615 0 0 
30 1 26.2087 1.74725 0 
31 1 24.4615 1.74725 1.74725 
32 1 26.2087 0 1.74725 
33 2 27.956 0 0 
34 2 29.7033 1.74725 0 
35 1 27.956 1.74725 1.74725 
36 1 29.7033 0 1.74725 
37 2 31.4505 0 0 
38 2 33.1977 1.74725 0 
39 1 31.4505 1.74725 1.74725 
40 2 33.1977 0 1.74725 
41 1 0 3.4945 0 
42 2 1.74725 5.24175 0 
43 2 0 5.24175 1.74725 
44 2 1.74725 3.4945 1.74725 
45 2 3.4945 3.4945 0 
46 1 5.24175 5.24175 0 
47 1 3.4945 5.24175 1.74725 
48 2 5.24175 3.4945 1.74725 
49 2 6.989 3.4945 0 
50 2 8.73625 5.24175 0 
51 2 6.989 5.24175 1.74725 
52 2 8.73625 3.4945 1.74725 
53 1 10.4835 3.4945 0 
54 2 12.2308 5.24175 0 
55 2 10.4835 5.24175 1.74725 
56 2 12.2308 3.4945 1.74725 
57 2 13.978 3.4945 0 
58 1 15.7253 5.24175 0 
59 1 13.978 5.24175 1.74725 
60 2 15.7253 3.4945 1.74725 
61 2 17.4725 3.4945 0 
62 2 19.2198 5.24175 0 
63 2 17.4725 5.24175 1.74725 
64 2 19.2198 3.4945 1.74725 
65 2 20.967 3.4945 0 
66 2 22.7142 5.24175 0 
67 2 20.967 5.24175 1.74725 
68 2 22.7142 3.4945 1.74725 
69 2 24.4615 3.4945 0 
70 2 26.2087 5.24175 0 
71 2 24.4615 5.24175 1.74725 
72 1 26.2087 3.4945 1.74725 
73 1 27.956 3.4945 0 
74 1 29.7033 5.24175 0 
75 2 27.956 5.24175 1.74725 
76 1 29.7033 3.4945 1.74725 
77 2 31.4505 3.4945 0 
78 2 33.1977 5.24175 0 
79 2 31.4505 5.24175 1.74725 
80 2 33.1977 3.4945 1.74725 
81 2 0 6.989 0 
82 2 1.74725 8.73625 0 
83 2 0 8.73625 1.74725 
84 2 1.74725 6.989 1.74725 
85 2 3.4945 6.989 0 
86 1 5.24175 8.73625 0 
87 2 3.4945 8.73625 1.74725 
88 2 5.24175 6.989 1.74725 
89 2 6.989 6.989 0 
90 2 8.73625 8.73625 0 
91 2 6.989 8.73625 1.74725 
92 1 8.73625 6.989 1.74725 
93 2 10.4835 6.989 0 
94 2 12.2308 8.73625 0 
95 2 10.4835 8.73625 1.74725 
96 2 12.2308 6.989 1.74725 
97 2 13.978 6.989 0 
98 2 15.7253 8.73625 0 
99 1 13.978 8.73625 1.74725 
100 1 15.7253 6.989 1.74725 
101 1 17.4725 6.989 0 
102 2 19.2198 8.73625 0 
103 2 17.4725 8.73625 1.74725 
104 2 19.2198 6.989 1.74725 
105 2 20.967 6.989 0 
106 2 22.7142 8.73625 0 
107 2 20.967 8.73625 1.74725 
108 2 22.7142 6.989 1.74725 
109 1 24.4615 6.989 0 
110 2 26.2087 8.73625 0 
111 2 24.4615 8.73625 1.74725 
112 2 26.2087 6.989 1.74725 
113 1 27.956 6.989 0 
114 1 29.7033 8.73625 0 
115 1 27.956 8.73625 1.74725 
116 1 29.7033 6.989 1.74725 
117 2 31.4505 6.989 0 
118 2 33.1977 8.73625 0 
119 1 31.4505 8.73625 1.74725 
120 2 33.1977 6.989 1.74725 
121 1 0 10.4835 0 
122 1 1.74725 12.2308 0 
123 2 0 12.2308 1.74725 
124 2 1.74725 10.4835 1.74725 
125 2 3.4945 10.4835 0 
126 1 5.24175 12.2308 0 
127 2 3.4945 12.2308 1.74725 
128 2 5.24175 10.4835 1.74725 
129 2 6.989 10.4835 0 
130 2 8.73625 12.2308 0 
131 2 6.989 12.2308 1.74725 
132 2 8.73625 10.4835 1.74725 
133 1 10.4835 10.4835 0 
134 2 12.2308 12.2308 0 
135 1 10.4835 12.2308 1.74725 
136 1 12.2308 10.4835 1.74725 
137 2 13.978 10.4835 0 
138 2 15.7253 12.2308 0 
139 2 13.978 12.2308 1.74725 
140 2 15.7253 10.4835 1.74725 
141 2 17.4725 10.4835 0 
142 2 19.2198 12.2308 0 
143 2 17.4725 12.2308 1.74725 
144 2 19.2198 10.4835 1.74725 
145 1 20.967 10.4835 0 
146 2 22.7142 12.2308 0 
147 2 20.967 12.2308 1.74725 
148 1 22.7142 10.4835 1.74725 
149 1 24.4615 10.4835 0 
150 1 26.2087 12.2308 0 
151 2 24.4615 12.2308 1.74725 
152 2 26.2087 10.4835 1.74725 
153 2 27.956 10.4835 0 
154 1 29.7033 12.2308 0 
155 2 27.956 12.2308 1.74725 
156 2 29.7033 10.4835 1.74725 
157 1 31.4505 10.4835 0 
158 1 33.1977 12.2308 0 
159 2 31.4505 12.2308 1.74725 
160 1 33.1977 10.4835 1.74725 
161 2 0 13.978 0 
162 1 1.74725 15.7253 0 
163 2 0 15.7253 1.74725 
164 2 1.74725 13.978 1.74725 
165 2 3.4945 13.978 0 
166 1 5.24175 15.7253 0 
167 1 3.4945 15.7253 1.74725 
168 2 5.24175 13.978 1.74725 
169 2 6.989 13.978 0 
170 2 8.73625 15.7253 0 
171 1 6.989 15.7253 1.74725 
172 2 8.73625 13.978 1.74725 
173 1 10.4835 13.978 0 
174 2 12.2308 15.7253 0 
175 2 10.4835 15.7253 1.74725 
176 2 12.2308 13.978 1.74725 
177 2 13.978 13.978 0 
178 2 15.7253 15.7253 0 
179 1 13.978 15.7253 1.74725 
180 1 15.7253 13.978 1.74725 
181 1 17.4725 13.978 0 
182 2 19.2198 15.7253 0 
183 2 17.4725 15.7253 1.74725 
184 2 19.2198 13.978 1.74725 
185 2 20.967 13.978 0 
186 1 22.7142 15.7253 0 
187 2 20.967 15.7253 1.74725 
188 2 22.7142 13.978 1.74725 
189 2 24.4615 13.978 0 
190 1 26.2087 15.7253 0 
191 2 24.4615 15.7253 1.74725 
192 2 26.2087 13.978 1.74725 
193 1 27.956 13.978 0 
194 2 29.7033 15.7253 0 
195 2 27.956 15.7253 1.74725 
196 2 29.7033 13.978 1.74725 
197 2 31.4505 13.978 0 
198 2 33.1977 15.7253 0 
199 2 31.4505 15.7253 1.74725 
200 1 33.1977 13.978 1.74725 
201 2 0 17.4725 0 
202 2 1.74725 19.2198 0 
203 2 0 19.2198 1.74725 
204 1 1.74725 17.4725 1.74725 
205 1 3.4945 17.4725 0 
206 2 5.24175 19.2198 0 
207 1 3.4945 19.2198 1.74725 
208 2 5.24175 17.4725 1.74725 
209 2 6.989 17.4725 0 
210 2 8.73625 19.2198 0 
211 2 6.989 19.2198 1.74725 
212 2 8.73625 17.4725 1.74725 
213 2 10.4835 17.4725 0 
214 2 12.2308 19.2198 0 
215 2 10.4835 19.2198 1.74725 
216 2 12.2308 17.4725 1.74725 
217 1 13.978 17.4725 0 
218 1 15.7253 19.2198 0 
219 2 13.978 19.2198 1.74725 
220 1 15.7253 17.4725 1.74725 
221 1 17.4725 17.4725 0 
222 2 19.2198 19.2198 0 
223 1 17.4725 19.2198 1.74725 
224 1 19.2198 17.4725 1.74725 
225 2 20.967 17.4725 0 
226 2 22.7142 19.2198 0 
227 1 20.967 19.2198 1.74725 
228 1 22.7142 17.4725 1.74725 
229 2 24.4615 17.4725 0 
230 1 26.2087 19.2198 0 
231 1 24.4615 19.2198 1.74725 
232 1 26.2087 17.4725 1.74725 
233 1 27.956 17.4725 0 
234 2 29.7033 19.2198 0 
235 1 27.956 19.2198 1.74725 
236 2 29.7033 17.4725 1.74725 
237 2 31.4505 17.4725 0 
238 2 33.1977 19.2198 0 
239 2 31.4505 19.2198 1.74725 
240 2 33.1977 17.4725 1.74725 
241 1 0 20.967 0 
242 2 1.74725 22.7142 0 
243 2 0 22.7142 1.74725 
244 1 1.74725 20.967 1.74725 
245 2 3.4945 20.967 0 
246 2 5.24175 22.7142 0 
247 2 3.4945 22.7142 1.74725 
248 1 5.24175 20.967 1.74725 
249 2 6.989 20.967 0 
250 2 8.73625 22.7142 0 
251 1 6.989 22.7142 1.74725 
252 2 8.73625 20.967 1.74725 
253 2 10.4835 20.967 0 
254 2 12.2308 22.7142 0 
255 2 10.4835 22.7142 1.74725 
256 2 12.2308 20.967 1.74725 
257 2 13.978 20.967 0 
258 2 15.7253 22.7142 0 
259 2 13.978 22.7142 1.74725 
260 2 15.7253 20.967 1.74725 
261 1 17.4725 20.967 0 
262 2 19.2198 22.7142 0 
263 2 17.4725 22.7142 1.74725 
264 2 19.2198 20.967 1.74725 
265 2 20.967 20.967 0 
266 1 22.7142 22.7142 0 
267 2 20.967 22.7142 1.74725 
268 2 22.7142 20.967 1.74725 
269 1 24.4615 20.967 0 
270 1 26.2087 22.7142 0 
271 1 24.4615 22.7142 1.74725 
272 1 26.2087 20.967 1.74725 
273 2 27.956 20.967 0 
274 2 29.7033 22.7142 0 
275 2 27.956 22.7142 1.74725 
276 2 29.7033 20.967 1.74725 
277 2 31.4505 20.967 0 
278 1 33.1977 22.7142 0 
279 1 31.4505 22.7142 1.74725 
280 1 33.1977 20.967 1.74725 
281 1 0 24.4615 0 
282 2 1.74725 26.2087 0 
283 2 0 26.2087 1.74725 
284 1 1.74725 24.4615 1.74725 
285 2 3.4945 24.4615 0 
286 1 5.24175 26.2087 0 
287 2 3.4945 26.2087 1.74725 
288 2 5.24175 24.4615 1.74725 
289 2 6.989 24.4615 0 
290 2 8.73625 26.2087 0 
291 1 6.989 26.2087 1.74725 
292 1 8.73625 24.4615 1.74725 
293 2 10.4835 24.4615 0 
294 2 12.2308 26.2087 0 
295 2 10.4835 26.2087 1.74725 
296 2 12.2308 24.4615 1.74725 
297 2 13.978 24.4615 0 
298 1 15.7253 26.2087 0 
299 2 13.978 26.2087 1.74725 
300 2 15.7253 24.4615 1.74725 
301 1 17.4725 24.4615 0 
302 2 19.2198 26.2087 0 
303 1 17.4725 26.2087 1.74725 
304 2 19.2198 24.4615 1.74725 
305 1 20.967 24.4615 0 
306 1 22.7142 26.2087 0 
307 2 20.967 26.2087 1.74725 
308 2 22.7142 24.4615 1.74725 
309 2 24.4615 24.4615 0 
310 2 26.2087 26.2087 0 
311 2 24.4615 26.2087 1.74725 
312 2 26.2087 24.4615 1.74725 
313 2 27.956 24.4615 0 
314 2 29.7033 26.2087 0 
315 1 27.956 26.2087 1.74725 
316 2 29.7033 24.4615 1.74725 
317 2 31.4505 24.4615 0 
318 1 33.1977 26.2087 0 
319 2 31.4505 26.2087 1.74725 
320 1 33.1977 24.4615 1.74725 
321 2 0 27.956 0 
322 2 1.74725 29.7033 0 
323 2 0 29.7033 1.74725 
324 2 1.74725 27.956 1.74725 
325 1 3.4945 27.956 0 
326 1 5.24175 29.7033 0 
327 2 3.4945 29.7033 1.74725 
328 2 5.24175 27.956 1.74725 
329 2 6.989 27.956 0 
330 1 8.73625 29.7033 0 
331 2 6.989 29.7033 1.74725 
332 1 8.73625 27.956 1.74725 
333 2 10.4835 27.956 0 
334 2 12.2308 29.7033 0 
335 2 10.4835 29.7033 1.74725 
336 1 12.2308 27.956 1.74725 
337 1 13.978 27.956 0 
338 1 15.7253 29.7033 0 
339 2 13.978 29.7033 1.74725 
340 2 15.7253 27.956 1.74725 
341 1 17.4725 27.956 0 
342 1 19.2198 29.7033 0 
343 2 17.4725 29.7033 1.74725 
344 1 19.2198 27.956 1.74725 
345 2 20.967 27.956 0 
346 2 22.7142 29.7033 0 
347 1 20.967 29.7033 1.74725 
348 2 22.7142 27.956 1.74725 
349 2 24.4615 27.956 0 
350 2 26.2087 29.7033 0 
351 2 24.4615 29.7033 1.74725 
352 2 26.2087 27.956 1.74725 
353 2 27.956 27.956 0 
354 1 29.7033 29.7033 0 
355 1 27.956 29.7033 1.74725 
356 2 29.7033 27.956 1.74725 
357 1 31.4505 27.956 0 
358 1 33.1977 29.7033 0 
359 2 31.4505 29.7033 1.74725 
360 1 33.1977 27.956 1.74725 
361 2 0 31.4505 0 
362 2 1.74725 33.1977 0 
363 1 0 33.1977 1.74725 
364 2 1.74725 31.4505 1.74725 
365 2 3.4945 31.4505 0 
366 1 5.24175 33.1977 0 
367 2 3.4945 33.1977 1.74725 
368 2 5.24175 31.4505 1.74725 
369 2 6.989 31.4505 0 
370 2 8.73625 33.1977 0 
371 2 6.989 33.1977 1.74725 
372 2 8.73625 31.4505 1.74725 
373 1 10.4835 31.4505 0 
374 1 12.2308 33.1977 0 
375 1 10.4835 33.1977 1.74725 
376 2 12.2308 31.4505 1.74725 
377 1 13.978 31.4505 0 
378 2 15.7253 33.1977 0 
379 1 13.978 33.1977 1.74725 
380 2 15.7253 31.4505 1.74725 
381 2 17.4725 31.4505 0 
382 1 19.2198 33.1977 0 
383 2 17.4725 33.1977 1.74725 
384 2 19.2198 31.4505 1.74725 
385 1 20.967 31.4505 0 
386 1 22.7142 33.1977 0 
387 2 20.967 33.1977 1.74725 
388 2 22.7142 31.4505 1.74725 
389 2 24.4615 31.4505 0 
390 1 26.2087 33.1977 0 
391 2 24.4615 33.1977 1.74725 
392 2 26.2087 31.4505 1.74725 
393 2 27.956 31.4505 0 
394 1 29.7033 33.1977 0 
395 2 27.956 33.1977 1.74725 
396 2 29.7033 31.4505 1.74725 
397 2 31.4505 31.4505 0 
398 2 33.1977 33.1977 0 
399 1 31.4505 33.1977 1.74725 
400 1 33.1977 31.4505 1.74725 
401 2 0 0 3.4945 
402 2 1.74725 1.74725 3.4945 
403 2 0 1.74725 5.24175 
404 2 1.74725 0 5.24175 
405 2 3.4945 0 3.4945 
406 1 5.24175 1.74725 3.4945 
407 2 3.4945 1.74725 5.24175 
408 1 5.24175 0 5.24175 
409 2 6.989 0 3.4945 
410 2 8.73625 1.74725 3.4945 
411 1 6.989 1.74725 5.24175 
412 2 8.73625 0 5.24175 
413 2 10.4835 0 3.4945 
414 1 12.2308 1.74725 3.4945 
415 2 10.4835 1.74725 5.24175 
416 2 12.2308 0 5.24175 
417 2 13.978 0 3.4945 
418 1 15.7253 1.74725 3.4945 
419 1 13.978 1.74725 5.24175 
420 1 15.7253 0 5.24175 
421 2 17.4725 0 3.4945 
422 1 19.2198 1.74725 3.4945 
423 1 17.4725 1.74725 5.24175 
424 2 19.2198 0 5.24175 
425 1 20.967 0 3.4945 
426 1 22.7142 1.74725 3.4945 
427 1 20.967 1.74725 5.24175 
428 2 22.7142 0 5.24175 
429 1 24.4615 0 3.4945 
430 1 26.2087 1.74725 3.4945 
431 2 24.4615 1.74725 5.24175 
432 1 26.2087 0 5.24175 
433 1 27.956 0 3.4945 
434 1 29.7033 1.74725 3.4945 
435 1 27.956 1.74725 5.24175 
436 2 29.7033 0 5.24175 
437 1 31.4505 0 3.4945 
438 2 33.1977 1.74725 3.4945 
439 1 31.4505 1.74725 5.24175 
440 1 33.1977 0 5.24175 
441 2 0 3.4945 3.4945 
442 2 1.74725 5.24175 3.4945 
443 2 0 5.24175 5.24175 
444 1 1.74725 3.4945 5.24175 
445 2 3.4945 3.4945 3.4945 
446 2 5.24175 5.24175 3.4945 
447 2 3.4945 5.24175 5.24175 
448 2 5.24175 3.4945 5.24175 
449 1 6.989 3.4945 3.4945 
450 2 8.73625 5.24175 3.4945 
451 2 6.989 5.24175 5.24175 
452 2 8.73625 3.4945 5.24175 
453 1 10.4835 3.4945 3.4945 
454 2 12.2308 5.24175 3.4945 
455 1 10.4835 5.24175 5.24175 
456 2 12.2308 3.4945 5.24175 
457 1 13.978 3.4945 3.4945 
458 2 15.7253 5.24175 3.4945 
459 1 13.978 5.24175 5.24175 
460 2 15.7253 3.4945 5.24175 
461 2 17.4725 3.4945 3.4945 
462 1 19.2198 5.24175 3.4945 
463 2 17.4725 5.24175 5.24175 
464 2 19.2198 3.4945 5.24175 
465 2 20.967 3.4945 3.4945 
466 2 22.7142 5.24175 3.4945 
467 1 20.967 5.24175 5.24175 
468 1 22.7142 3.4945 5.24175 
469 2 24.4615 3.4945 3.4945 
470 2 26.2087 5.24175 3.4945 
471 2 24.4615 5.24175 5.24175 
472 2 26.2087 3.4945 5.24175 
473 2 27.956 3.4945 3.4945 
474 2 29.7033 5.24175 3.4945 
475 1 27.956 5.24175 5.24175 
476 2 29.7033 3.4945 5.24175 
477 1 31.4505 3.4945 3.4945 
478 2 33.1977 5.24175 3.4945 
479 2 31.4505 5.24175 5.24175 
480 2 33.1977 3.4945 5.24175 
481 2 0 6.989 3.4945 
482 2 1.74725 8.73625 3.4945 
483 2 0 8.73625 5.24175 
484 2 1.74725 6.989 5.24175 
485 2 3.4945 6.989 3.4945 
486 1 5.24175 8.73625 3.4945 
487 2 3.4945 8.73625 5.24175 
488 1 5.24175 6.989 5.24175 
489 2 6.989 6.989 3.4945 
490 2 8.73625 8.73625 3.4945 
491 1 6.989 8.73625 5.24175 
492 2 8.73625 6.989 5.24175 
493 2 10.4835 6.989 3.4945 
494 2 12.2308 8.73625 3.4945 
495 2 10.4835 8.73625 5.24175 
496 2 12.2308 6.989 5.24175 
497 1 13.978 6.989 3.4945 
498 2 15.7253 8.73625 3.4945 
499 1 13.978 8.73625 5.24175 
500 2 15.7253 6.989 5.24175 
501 2 17.4725 6.989 3.4945 
502 1 19.2198 8.73625 3.4945 
503 2 17.4725 8.73625 5.24175 
504 2 19.2198 6.989 5.24175 
505 2 20.967 6.989 3.4945 
506 2 22.7142 8.73625 3.4945 
507 2 20.967 8.73625 5.24175 
508 2 22.7142 6.989 5.24175 
509 2 24.4615 6.989 3.4945 
510 2 26.2087 8.73625 3.4945 
511 1 24.4615 8.73625 5.24175 
512 1 26.2087 6.989 5.24175 
513 1 27.956 6.989 3.4945 
514 2 29.7033 8.73625 3.4945 
515 1 27.956 8.73625 5.24175 
516 2 29.7033 6.989 5.24175 
517 2 31.4505 6.989 3.4945 
518 2 33.1977 8.73625 3.4945 
519 2 31.4505 8.73625 5.24175 
520 2 33.1977 6.989 5.24175 
521 1 0 10.4835 3.4945 
522 1 1.74725 12.2308 3.4945 
523 1 0 12.2308 5.24175 
524 2 1.74725 10.4835 5.24175 
525 2 3.4945 10.4835 3.4945 
526 1 5.24175 12.2308 3.4945 
527 2 3.4945 12.2308 5.24175 
528 2 5.24175 10.4835 5.24175 
529 1 6.989 10.4835 3.4945 
530 2 8.73625 12.2308 3.4945 
531 2 6.989 12.2308 5.24175 
532 1 8.73625 10.4835 5.24175 
533 1 10.4835 10.4835 3.4945 
534 2 12.2308 12.2308 3.4945 
535 2 10.4835 12.2308 5.24175 
536 2 12.2308 10.4835 5.24175 
537 2 13.978 10.4835 3.4945 
538 2 15.7253 12.2308 3.4945 
539 2 13.978 12.2308 5.24175 
540 1 15.7253 10.4835 5.24175 
541 2 17.4725 10.4835 3.4945 
542 2 19.2198 12.2308 3.4945 
543 2 17.4725 12.2308 5.24175 
544 2 19.2198 10.4835 5.24175 
545 1 20.967 10.4835 3.4945 
546 1 22.7142 12.2308 3.4945 
547 1 20.967 12.2308 5.24175 
548 2 22.7142 10.4835 5.24175 
549 2 24.4615 10.4835 3.4945 
550 2 26.2087 12.2308 3.4945 
551 2 24.4615 12.2308 5.24175 
552 2 26.2087 10.4835 5.24175 
553 1 27.956 10.4835 3.4945 
554 2 29.7033 12.2308 3.4945 
555 1 27.956 12.2308 5.24175 
556 2 29.7033 10.4835 5.24175 
557 2 31.4505 10.4835 3.4945 
558 2 33.1977 12.2308 3.4945 
559 2 31.4505 12.2308 5.24175 
560 1 33.1977 10.4835 5.24175 
561 1 0 13.978 3.4945 
562 2 1.74725 15.7253 3.4945 
563 1 0 15.7253 5.24175 
564 1 1.74725 13.978 5.24175 
565 2 3.4945 13.978 3.4945 
566 2 5.24175 15.7253 3.4945 
567 2 3.4945 15.7253 5.24175 
568 2 5.24175 13.978 5.24175 
569 1 6.989 13.978 3.4945 
570 1 8.73625 15.7253 3.4945 
571 2 6.989 15.7253 5.24175 
572 2 8.73625 13.978 5.24175 
573 1 10.4835 13.978 3.4945 
574 2 12.2308 15.7253 3.4945 
575 2 10.4835 15.7253 5.24175 
576 1 12.2308 13.978 5.24175 
577 1 13.978 13.978 3.4945 
578 2 15.7253 15.7253 3.4945 
579 2 13.978 15.7253 5.24175 
580 1 15.7253 13.978 5.24175 
581 1 17.4725 13.978 3.4945 
582 2 19.2198 15.7253 3.4945 
583 1 17.4725 15.7253 5.24175 
584 2 19.2198 13.978 5.24175 
585 1 20.967 13.978 3.4945 
586 1 22.7142 15.7253 3.4945 
587 1 20.967 15.7253 5.24175 
588 1 22.7142 13.978 5.24175 
589 2 24.4615 13.978 3.4945 
590 1 26.2087 15.7253 3.4945 
591 2 24.4615 15.7253 5.24175 
592 1 26.2087 13.978 5.24175 
593 2 27.956 13.978 3.4945 
594 2 29.7033 15.7253 3.4945 
595 2 27.956 15.7253 5.24175 
596 1 29.7033 13.978 5.24175 
597 2 31.4505 13.978 3.4945 
598 2 33.1977 15.7253 3.4945 
599 2 31.4505 15.7253 5.24175 
600 2 33.1977 13.978 5.24175 
601 2 0 17.4725 3.4945 
602 2 1.74725 19.2198 3.4945 
603 1 0 19.2198 5.24175 
604 2 1.74725 17.4725 5.24175 
605 1 3.4945 17.4725 3.4945 
606 1 5.24175 19.2198 3.4945 
607 2 3.4945 19.2198 5.24175 
608 1 5.24175 17.4725 5.24175 
609 1 6.989 17.4725 3.4945 
610 1 8.73625 19.2198 3.4945 
611 1 6.989 19.2198 5.24175 
612 2 8.73625 17.4725 5.24175 
613 2 10.4835 17.4725 3.4945 
614 1 12.2308 19.2198 3.4945 
615 1 10.4835 19.2198 5.24175 
616 2 12.2308 17.4725 5.24175 
617 1 13.978 17.4725 3.4945 
618 1 15.7253 19.2198 3.4945 
619 2 13.978 19.2198 5.24175 
620 2 15.7253 17.4725 5.24175 
621 2 17.4725 17.4725 3.4945 
622 2 19.2198 19.2198 3.4945 
623 2 17.4725 19.2198 5.24175 
624 1 19.2198 17.4725 5.24175 
625 2 20.967 17.4725 3.4945 
626 2 22.7142 19.2198 3.4945 
627 2 20.967 19.2198 5.24175 
628 1 22.7142 17.4725 5.24175 
629 1 24.4615 17.4725 3.4945 
630 1 26.2087 19.2198 3.4945 
631 2 24.4615 19.2198 5.24175 
632 2 26.2087 17.4725 5.24175 
633 2 27.956 17.4725 3.4945 
634 2 29.7033 19.2198 3.4945 
635 1 27.956 19.2198 5.24175 
636 1 29.7033 17.4725 5.24175 
637 2 31.4505 17.4725 3.4945 
638 1 33.1977 19.2198 3.4945 
639 2 31.4505 19.2198 5.24175 
640 1 33.1977 17.4725 5.24175 
641 1 0 20.967 3.4945 
642 2 1.74725 22.7142 3.4945 
643 1 0 22.7142 5.24175 
644 1 1.74725 20.967 5.24175 
645 2 3.4945 20.967 3.4945 
646 2 5.24175 22.7142 3.4945 
647 1 3.4945 22.7142 5.24175 
648 1 5.24175 20.967 5.24175 
649 2 6.989 20.967 3.4945 
650 1 8.73625 22.7142 3.4945 
651 1 6.989 22.7142 5.24175 
652 1 8.73625 20.967 5.24175 
653 2 10.4835 20.967 3.4945 
654 2 12.2308 22.7142 3.4945 
655 2 10.4835 22.7142 5.24175 
656 2 12.2308 20.967 5.24175 
657 2 13.978 20.967 3.4945 
658 2 15.7253 22.7142 3.4945 
659 1 13.978 22.7142 5.24175 
660 2 15.7253 20.967 5.24175 
661 1 17.4725 20.967 3.4945 
662 2 19.2198 22.7142 3.4945 
663 1 17.4725 22.7142 5.24175 
664 2 19.2198 20.967 5.24175 
665 1 20.967 20.967 3.4945 
666 1 22.7142 22.7142 3.4945 
667 2 20.967 22.7142 5.24175 
668 1 22.7142 20.967 5.24175 
669 2 24.4615 20.967 3.4945 
670 2 26.2087 22.7142 3.4945 
671 2 24.4615 22.7142 5.24175 
672 2 26.2087 20.967 5.24175 
673 2 27.956 20.967 3.4945 
674 1 29.7033 22.7142 3.4945 
675 1 27.956 22.7142 5.24175 
676 2 29.7033 20.967 5.24175 
677 2 31.4505 20.967 3.4945 
678 2 33.1977 22.7142 3.4945 
679 2 31.4505 22.7142 5.24175 
680 2 33.1977 20.967 5.24175 
681 1 0 24.4615 3.4945 
682 1 1.74725 26.2087 3.4945 
683 2 0 26.2087 5.24175 
684 2 1.74725 24.4615 5.24175 
685 1 3.4945 24.4615 3.4945 
686 2 5.24175 26.2087 3.4945 
687 2 3.4945 26.2087 5.24175 
688 2 5.24175 24.4615 5.24175 
689 1 6.989 24.4615 3.4945 
690 2 8.73625 26.2087 3.4945 
691 1 6.989 26.2087 5.24175 
692 2 8.73625 24.4615 5.24175 
693 2 10.4835 24.4615 3.4945 
694 1 12.2308 26.2087 3.4945 
695 2 10.4835 26.2087 5.24175 
696 2 12.2308 24.4615 5.24175 
697 2 13.978 24.4615 3.4945 
698 2 15.7253 26.2087 3.4945 
699 1 13.978 26.2087 5.24175 
700 2 15.7253 24.4615 5.24175 
701 1 17.4725 24.4615 3.4945 
702 2 19.2198 26.2087 3.4945 
703 1 17.4725 26.2087 5.24175 
704 2 19.2198 24.4615 5.24175 
705 1 20.967 24.4615 3.4945 
706 2 22.7142 26.2087 3.4945 
707 1 20.967 26.2087 5.24175 
708 2 22.7142 24.4615 5.24175 
709 1 24.4615 24.4615 3.4945 
710 1 26.2087 26.2087 3.4945 
711 1 24.4615 26.2087 5.24175 
712 1 26.2087 24.4615 5.24175 
713 2 27.956 24.4615 3.4945 
714 1 29.7033 26.2087 3.4945 
715 2 27.956 26.2087 5.24175 
716 2 29.7033 24.4615 5.24175 
717 2 31.4505 24.4615 3.4945 
718 2 33.1977 26.2087 3.4945 
719 1 31.4505 26.2087 5.24175 
720 1 33.1977 24.4615 5.24175 
721 2 0 27.956 3.4945 
722 2 1.74725 29.7033 3.4945 
723 2 0 29.7033 5.24175 
724 2 1.74725 27.956 5.24175 
725 2 3.4945 27.956 3.4945 
726 1 5.24175 29.7033 3.4945 
727 1 3.4945 29.7033 5.24175 
728 2 5.24175 27.956 5.24175 
729 2 6.989 27.956 3.4945 
730 1 8.73625 29.7033 3.4945 
731 2 6.989 29.7033 5.24175 
732 2 8.73625 27.956 5.24175 
733 2 10.4835 27.956 3.4945 
734 1 12.2308 29.7033 3.4945 
735 2 10.4835 29.7033 5.24175 
736 2 12.2308 27.956 5.24175 
737 1 13.978 27.956 3.4945 
738 2 15.7253 29.7033 3.4945 
739 2 13.978 29.7033 5.24175 
740 2 15.7253 27.956 5.24175 
741 2 17.4725 27.956 3.4945 
742 2 19.2198 29.7033 3.4945 
743 1 17.4725 29.7033 5.24175 
744 1 19.2198 27.956 5.24175 
745 2 20.967 27.956 3.4945 
746 2 22.7142 29.7033 3.4945 
747 1 20.967 29.7033 5.24175 
748 1 22.7142 27.956 5.24175 
749 2 24.4615 27.956 3.4945 
750 2 26.2087 29.7033 3.4945 
751 2 24.4615 29.7033 5.24175 
752 1 26.2087 27.956 5.24175 
753 2 27.956 27.956 3.4945 
754 2 29.7033 29.7033 3.4945 
755 2 27.956 29.7033 5.24175 
756 2 29.7033 27.956 5.24175 
757 2 31.4505 27.956 3.4945 
758 1 33.1977 29.7033 3.4945 
759 2 31.4505 29.7033 5.24175 
760 1 33.1977 27.956 5.24175 
761 2 0 31.4505 3.4945 
762 2 1.74725 33.1977 3.4945 
763 2 0 33.1977 5.24175 
764 2 1.74725 31.4505 5.24175 
765 1 3.4945 31.4505 3.4945 
766 2 5.24175 33.1977 3.4945 
767 2 3.4945 33.1977 5.24175 
768 2 5.24175 31.4505 5.24175 
769 2 6.989 31.4505 3.4945 
770 2 8.73625 33.1977 3.4945 
771 2 6.989 33.1977 5.24175 
772 1 8.73625 31.4505 5.24175 
773 2 10.4835 31.4505 3.4945 
774 2 12.2308 33.1977 3.4945 
775 2 10.4835 33.1977 5.24175 
776 1 12.2308 31.4505 5.24175 
777 2 13.978 31.4505 3.4945 
778 2 15.7253 33.1977 3.4945 
779 1 13.978 33.1977 5.24175 
780 1 15.7253 31.4505 5.24175 
781 1 17.4725 31.4505 3.4945 
782 2 19.2198 33.1977 3.4945 
783 2 17.4725 33.1977 5.24175 
784 2 19.2198 31.4505 5.24175 
785 2 20.967 31.4505 3.4945 
786 2 22.7142 33.1977 3.4945 
787 2 20.967 33.1977 5.24175 
788 2 22.7142 31.4505 5.24175 
789 2 24.4615 31.4505 3.4945 
790 1 26.2087 33.1977 3.4945 
791 2 24.4615 33.1977 5.24175 
792 2 26.2087 31.4505 5.24175 
793 2 27.956 31.4505 3.4945 
794 1 29.7033 33.1977 3.4945 
795 2 27.956 33.1977 5.24175 
796 1 29.7033 31.4505 5.24175 
797 1 31.4505 31.4505 3.4945 
798 1 33.1977 33.1977 3.4945 
799 1 31.4505 33.1977 5.24175 
800 2 33.1977 31.4505 5.24175 
801 1 0 0 6.989 
802 2 1.74725 1.74725 6.989 
803 1 0 1.74725 8.73625 
804 1 1.74725 0 8.73625 
805 1 3.4945 0 6.989 
806 1 5.24175 1.74725 6.989 
807 2 3.4945 1.74725 8.73625 
808 1 5.24175 0 8.73625 
809 1 6.989 0 6.989 
810 1 8.73625 1.74725 6.989 
811 1 6.989 1.74725 8.73625 
812 1 8.73625 0 8.73625 
813 1 10.4835 0 6.989 
814 1 12.2308 1.74725 6.989 
815 2 10.4835 1.74725 8.73625 
816 2 12.2308 0 8.73625 
817 2 13.978 0 6.989 
818 2 15.7253 1.74725 6.989 
819 2 13.978 1.74725 8.73625 
820 2 15.7253 0 8.73625 
821 2 17.4725 0 6.989 
822 2 19.2198 1.74725 6.989 
823 1 17.4725 1.74725 8.73625 
824 2 19.2198 0 8.73625 
825 2 20.967 0 6.989 
826 1 22.7142 1.74725 6.989 
827 2 20.967 1.74725 8.73625 
828 1 22.7142 0 8.73625 
829 2 24.4615 0 6.989 
830 2 26.2087 1.74725 6.989 
831 2 24.4615 1.74725 8.73625 
832 1 26.2087 0 8.73625 
833 2 27.956 0 6.989 
834 1 29.7033 1.74725 6.989 
835 2 27.956 1.74725 8.73625 
836 2 29.7033 0 8.73625 
837 2 31.4505 0 6.989 
838 2 33.1977 1.74725 6.989 
839 2 31.4505 1.74725 8.73625 
840 1 33.1977 0 8.73625 
841 1 0 3.4945 6.989 
842 2 1.74725 5.24175 6.989 
843 1 0 5.24175 8.73625 
844 2 1.74725 3.4945 8.73625 
845 2 3.4945 3.4945 6.989 
846 2 5.24175 5.24175 6.989 
847 2 3.4945 5.24175 8.73625 
848 1 5.24175 3.4945 8.73625 
849 2 6.989 3.4945 6.989 
850 2 8.73625 5.24175 6.989 
851 1 6.989 5.24175 8.73625 
852 2 8.73625 3.4945 8.73625 
853 2 10.4835 3.4945 6.989 
854 2 12.2308 5.24175 6.989 
855 1 10.4835 5.24175 8.73625 
856 1 12.2308 3.4945 8.73625 
857 1 13.978 3.4945 6.989 
858 1 15.7253 5.24175 6.989 
859 2 13.978 5.24175 8.73625 
860 2 15.7253 3.4945 8.73625 
861 2 17.4725 3.4945 6.989 
862 1 19.2198 5.24175 6.989 
863 2 17.4725 5.24175 8.73625 
864 2 19.2198 3.4945 8.73625 
865 2 20.967 3.4945 6.989 
866 2 22.7142 5.24175 6.989 
867 2 20.967 5.24175 8.73625 
868 1 22.7142 3.4945 8.73625 
869 2 24.4615 3.4945 6.989 
870 2 26.2087 5.24175 6.989 
871 2 24.4615 5.24175 8.73625 
872 2 26.2087 3.4945 8.73625 
873 2 27.956 3.4945 6.989 
874 1 29.7033 5.24175 6.989 
875 2 27.956 5.24175 8.73625 
876 2 29.7033 3.4945 8.73625 
877 2 31.4505 3.4945 6.989 
878 2 33.1977 5.24175 6.989 
879 1 31.4505 5.24175 8.73625 
880 1 33.1977 3.4945 8.73625 
881 2 0 6.989 6.989 
882 1 1.74725 8.73625 6.989 
883 2 0 8.73625 8.73625 
884 2 1.74725 6.989 8.73625 
885 1 3.4945 6.989 6.989 
886 1 5.24175 8.73625 6.989 
887 2 3.4945 8.73625 8.73625 
888 1 5.24175 6.989 8.73625 
889 1 6.989 6.989 6.989 
890 2 8.73625 8.73625 6.989 
891 2 6.989 8.73625 8.73625 
892 2 8.73625 6.989 8.73625 
893 1 10.4835 6.989 6.989 
894 2 12.2308 8.73625 6.989 
895 2 10.4835 8.73625 8.73625 
896 1 12.2308 6.989 8.73625 
897 1 13.978 6.989 6.989 
898 1 15.7253 8.73625 6.989 
899 2 13.978 8.73625 8.73625 
900 2 15.7253 6.989 8.73625 
901 1 17.4725 6.989 6.989 
902 1 19.2198 8.73625 6.989 
903 2 17.4725 8.73625 8.73625 
904 2 19.2198 6.989 8.73625 
905 2 20.967 6.989 6.989 
906 2 22.7142 8.73625 6.989 
907 2 20.967 8.73625 8.73625 
908 1 22.7142 6.989 8.73625 
909 2 24.4615 6.989 6.989 
910 1 26.2087 8.73625 6.989 
911 2 24.4615 8.73625 8.73625 
912 1 26.2087 6.989 8.73625 
913 2 27.956 6.989 6.989 
914 2 29.7033 8.73625 6.989 
915 1 27.956 8.73625 8.73625 
916 1 29.7033 6.989 8.73625 
917 1 31.4505 6.989 6.989 
918 2 33.1977 8.73625 6.989 
919 2 31.4505 8.73625 8.73625 
920 2 33.1977 6.989 8.73625 
921 2 0 10.4835 6.989 
922 2 1.74725 12.2308 6.989 
923 2 0 12.2308 8.73625 
924 2 1.74725 10.4835 8.73625 
925 1 3.4945 10.4835 6.989 
926 1 5.24175 12.2308 6.989 
927 2 3.4945 12.2308 8.73625 
928 1 5.24175 10.4835 8.73625 
929 1 6.989 10.4835 6.989 
930 1 8.73625 12.2308 6.989 
931 2 6.989 12.2308 8.73625 
932 2 8.73625 10.4835 8.73625 
933 1 10.4835 10.4835 6.989 
934 2 12.2308 12.2308 6.989 
935 2 10.4835 12.2308 8.73625 
936 2 12.2308 10.4835 8.73625 
937 1 13.978 10.4835 6.989 
938 2 15.7253 12.2308 6.989 
939 1 13.978 12.2308 8.73625 
940 2 15.7253 10.4835 8.73625 
941 2 17.4725 10.4835 6.989 
942 2 19.2198 12.2308 6.989 
943 2 17.4725 12.2308 8.73625 
944 2 19.2198 10.4835 8.73625 
945 2 20.967 10.4835 6.989 
946 2 22.7142 12.2308 6.989 
947 2 20.967 12.2308 8.73625 
948 2 22.7142 10.4835 8.73625 
949 2 24.4615 10.4835 6.989 
950 2 26.2087 12.2308 6.989 
951 1 24.4615 12.2308 8.73625 
952 2 26.2087 10.4835 8.73625 
953 2 27.956 10.4835 6.989 
954 2 29.7033 12.2308 6.989 
955 2 27.956 12.2308 8.73625 
956 2 29.7033 10.4835 8.73625 
957 1 31.4505 10.4835 6.989 
958 1 33.1977 12.2308 6.989 
959 2 31.4505 12.2308 8.73625 
960 1 33.1977 10.4835 8.73625 
961 1 0 13.978 6.989 
962 2 1.74725 15.7253 6.989 
963 2 0 15.7253 8.73625 
964 1 1.74725 13.978 8.73625 
965 2 3.4945 13.978 6.989 
966 1 5.24175 15.7253 6.989 
967 2 3.4945 15.7253 8.73625 
968 2 5.24175 13.978 8.73625 
969 1 6.989 13.978 6.989 
970 2 8.73625 15.7253 6.989 
971 1 6.989 15.7253 8.73625 
972 2 8.73625 13.978 8.73625 
973 2 10.4835 13.978 6.989 
974 2 12.2308 15.7253 6.989 
975 2 10.4835 15.7253 8.73625 
976 2 12.2308 13.978 8.73625 
977 2 13.978 13.978 6.989 
978 2 15.7253 15.7253 6.989 
979 1 13.978 15.7253 8.73625 
980 2 15.7253 13.978 8.73625 
981 2 17.4725 13.978 6.989 
982 1 19.2198 15.7253 6.989 
983 2 17.4725 15.7253 8.73625 
984 2 19.2198 13.978 8.73625 
985 2 20.967 13.978 6.989 
986 2 22.7142 15.7253 6.989 
987 1 20.967 15.7253 8.73625 
988 2 22.7142 13.978 8.73625 
989 2 24.4615 13.978 6.989 
990 2 26.2087 15.7253 6.989 
991 2 24.4615 15.7253 8.73625 
992 1 26.2087 13.978 8.73625 
993 2 27.956 13.978 6.989 
994 2 29.7033 15.7253 6.989 
995 2 27.956 15.7253 8.73625 
996 2 29.7033 13.978 8.73625 
997 2 31.4505 13.978 6.989 
998 1 33.1977 15.7253 6.989 
999 1 31.4505 15.7253 8.73625 
1000 2 33.1977 13.978 8.73625 
1001 1 0 17.4725 6.989 
1002 2 1.74725 19.2198 6.989 
1003 1 0 19.2198 8.73625 
1004 2 1.74725 17.4725 8.73625 
1005 2 3.4945 17.4725 6.989 
1006 2 5.24175 19.2198 6.989 
1007 2 3.4945 19.2198 8.73625 
1008 2 5.24175 17.4725 8.73625 
1009 2 6.989 17.4725 6.989 
1010 2 8.73625 19.2198 6.989 
1011 1 6.989 19.2198 8.73625 
1012 1 8.73625 17.4725 8.73625 
1013 2 10.4835 17.4725 6.989 
1014 2 12.2308 19.2198 6.989 
1015 1 10.4835 19.2198 8.73625 
1016 2 12.2308 17.4725 8.73625 
1017 2 13.978 17.4725 6.989 
1018 2 15.7253 19.2198 6.989 
1019 2 13.978 19.2198 8.73625 
1020 2 15.7253 17.4725 8.73625 
1021 1 17.4725 17.4725 6.989 
1022 2 19.2198 19.2198 6.989 
1023 2 17.4725 19.2198 8.73625 
1024 2 19.2198 17.4725 8.73625 
1025 1 20.967 17.4725 6.989 
1026 1 22.7142 19.2198 6.989 
1027 2 20.967 19.2198 8.73625 
1028 2 22.7142 17.4725 8.73625 
1029 1 24.4615 17.4725 6.989 
1030 2 26.2087 19.2198 6.989 
1031 2 24.4615 19.2198 8.73625 
1032 2 26.2087 17.4725 8.73625 
1033 2 27.956 17.4725 6.989 
1034 2 29.7033 19.2198 6.989 
1035 2 27.956 19.2198 8.73625 
1036 2 29.7033 17.4725 8.73625 
1037 2 31.4505 17.4725 6.989 
1038 2 33.1977 19.2198 6.989 
1039 1 31.4505 19.2198 8.73625 
1040 2 33.1977 17.4725 8.73625 
1041 2 0 20.967 6.989 
1042 2 1.74725 22.7142 6.989 
1043 1 0 22.7142 8.73625 
1044 2 1.74725 20.967 8.73625 
1045 2 3.4945 20.967 6.989 
1046 2 5.24175 22.7142 6.989 
1047 2 3.4945 22.7142 8.73625 
1048 2 5.24175 20.967 8.73625 
1049 2 6.989 20.967 6.989 
1050 2 8.73625 22.7142 6.989 
1051 1 6.989 22.7142 8.73625 
1052 1 8.73625 20.967 8.73625 
1053 2 10.4835 20.967 6.989 
1054 2 12.2308 22.7142 6.989 
1055 2 10.4835 22.7142 8.73625 
1056 1 12.2308 20.967 8.73625 
1057 2 13.978 20.967 6.989 
1058 2 15.7253 22.7142 6.989 