ITEM: TIMESTEP
1000
ITEM: NUMBER OF ATOMS
4001
ITEM: BOX BOUNDS pp pp pp
0.0000000000000000e+00 3.4945000000000000e+01
0.0000000000000000e+00 3.4945000000000000e+01
0.0000000000000000e+00 3.4945000000000000e+01
ITEM: ATOMS id type x y z 
2 1 1.72685 1.75186 0.00644575 
4 2 1.72899 0.00872343 1.73973 
7 1 3.49129 1.73665 1.74156 
41 1 0.00887068 3.50734 0.00237444 
44 2 1.75017 3.49072 1.7443 
45 2 3.48598 3.49182 0.0128939 
402 2 1.752 1.75181 3.47693 
445 2 3.50263 3.49225 3.47989 
6 2 5.23347 1.74352 0.005265 
8 2 5.25164 0.0103421 1.7545 
11 1 6.99616 1.74845 1.74314 
48 2 5.23996 3.48315 1.74366 
406 1 5.24202 1.74661 3.49218 
409 2 6.99492 0.0209728 3.50191 
449 1 6.97227 3.48407 3.4979 
10 2 8.75219 1.75102 0.00626965 
12 1 8.74601 0.00863495 1.74609 
15 2 10.4895 1.73984 1.74461 
52 2 8.73984 3.48804 1.75799 
53 1 10.4884 3.49369 0.00632478 
410 2 8.72756 1.75174 3.50435 
413 2 10.4747 0.00699842 3.50429 
453 1 10.4847 3.47958 3.49853 
19 1 13.9735 1.73892 1.74777 
56 2 12.2322 3.4765 1.75679 
57 2 13.9645 3.47922 0.0157661 
414 1 12.2286 1.74562 3.50095 
417 2 13.9778 0.011806 3.50528 
457 1 13.9888 3.47147 3.498 
18 2 15.7169 1.74996 0.0100392 
23 2 17.4711 1.74147 1.76149 
24 1 19.2071 0.00624372 1.75729 
60 2 15.7134 3.49126 1.75389 
64 2 19.2121 3.47021 1.7435 
418 1 15.7198 1.73279 3.50923 
421 2 17.473 0.00379412 3.51523 
422 1 19.2158 1.74339 3.50505 
461 2 17.4653 3.4847 3.50492 
27 1 20.9546 1.73278 1.72922 
28 1 22.7063 0.00284271 1.75083 
68 2 22.7174 3.46442 1.73903 
425 1 20.9609 0.0156229 3.49828 
426 1 22.7101 1.7452 3.49402 
465 2 20.9576 3.47221 3.4988 
29 2 24.4654 0.0109838 0.00200769 
31 1 24.4698 1.74019 1.74251 
32 1 26.2203 0.00285433 1.75666 
72 1 26.2089 3.50385 1.74674 
429 1 24.4762 0.0168107 3.4891 
430 1 26.2189 1.76483 3.4933 
469 2 24.4543 3.48286 3.48652 
34 2 29.6937 1.7521 0.00137549 
35 1 27.9572 1.74453 1.74304 
73 1 27.9582 3.47865 0.000627763 
76 1 29.7086 3.49218 1.7561 
433 1 27.9647 0.00674348 3.49173 
434 1 29.7218 1.75647 3.48469 
473 2 27.9674 3.48693 3.48318 
36 1 29.7192 0.00063273 1.7479 
3 1 34.9338 1.754 1.745 
39 1 31.4533 1.76067 1.7182 
80 2 33.1881 3.5018 1.72846 
401 2 34.9325 0.00252558 3.48489 
438 2 33.1737 1.74222 3.47865 
441 2 34.9306 3.49506 3.48703 
477 1 31.4573 3.49774 3.49131 
43 2 0.0109437 5.24362 1.73272 
47 1 3.50714 5.25392 1.7483 
84 2 1.75889 6.99205 1.7413 
442 2 1.75031 5.23856 3.48462 
481 2 0.00750011 6.99781 3.48859 
485 2 3.50533 6.98459 3.50226 
51 2 6.9827 5.2214 1.75246 
88 2 5.26095 6.97912 1.74818 
446 2 5.24531 5.23629 3.48735 
489 2 6.992 6.97999 3.51757 
50 2 8.73197 5.23669 0.011173 
55 2 10.4965 5.23517 1.76532 
92 1 8.73386 6.97183 1.76484 
450 2 8.73889 5.22373 3.498 
493 2 10.493 6.97887 3.50895 
54 2 12.2388 5.22326 0.004674 
59 1 13.9767 5.23338 1.7442 
96 2 12.2437 6.99422 1.73643 
97 2 13.9928 6.97479 0.0111471 
454 2 12.2497 5.21876 3.50647 
497 1 13.9803 6.99152 3.48617 
58 1 15.7105 5.23884 0.00771276 
63 2 17.4557 5.23527 1.74488 
100 1 15.7253 6.97558 1.7635 
104 2 19.192 6.97973 1.73086 
458 2 15.7146 5.22835 3.50181 
462 1 19.2162 5.23602 3.48635 
501 2 17.4677 6.97831 3.4959 
67 2 20.9538 5.22229 1.75148 
108 2 22.7104 6.98526 1.73833 
466 2 22.6886 5.22676 3.49235 
505 2 20.9456 6.99245 3.48189 
71 2 24.4562 5.23125 1.74402 
112 2 26.2248 6.97257 1.74355 
470 2 26.214 5.2331 3.50101 
509 2 24.47 6.99136 3.47816 
74 1 29.708 5.23458 0.00504092 
75 2 27.971 5.23831 1.74733 
116 1 29.6993 6.99614 1.75217 
474 2 29.7039 5.23529 3.49298 
513 1 27.9542 6.98655 3.49674 
79 2 31.4412 5.24545 1.74879 
120 2 33.1892 7.00038 1.73041 
478 2 33.1966 5.25124 3.49034 
517 2 31.4396 6.98895 3.49432 
83 2 0.0007707 8.73553 1.736 
87 2 3.52026 8.71966 1.74396 
124 2 1.74441 10.4805 1.73862 
482 2 1.77038 8.74537 3.50038 
521 1 0.00901213 10.4661 3.49078 
525 2 3.50559 10.4845 3.50099 
91 2 6.988 8.71763 1.75737 
128 2 5.24667 10.4786 1.74464 
129 2 6.99986 10.4818 0.0113125 
486 1 5.25187 8.71569 3.50493 
529 1 6.97402 10.4677 3.47944 
95 2 10.4893 8.73156 1.73465 
132 2 8.75412 10.4625 1.7479 
490 2 8.72168 8.73384 3.50226 
533 1 10.4813 10.4595 3.49283 
99 1 13.9844 8.73863 1.73442 
136 1 12.2217 10.4791 1.75049 
137 2 13.9575 10.4823 0.00453987 
494 2 12.241 8.73239 3.491 
537 2 13.9644 10.4747 3.5078 
103 2 17.45 8.7285 1.73759 
140 2 15.7062 10.4827 1.75466 
144 2 19.2272 10.476 1.73669 
498 2 15.7213 8.73369 3.50493 
502 1 19.2056 8.73405 3.47224 
541 2 17.4796 10.4923 3.48987 
107 2 20.9551 8.74149 1.72909 
148 1 22.7021 10.4709 1.73953 
506 2 22.6985 8.73676 3.4831 
545 1 20.96 10.4635 3.49889 
111 2 24.4662 8.72776 1.73073 
152 2 26.199 10.4767 1.73559 
510 2 26.2229 8.73597 3.50202 
549 2 24.4492 10.4721 3.47209 
114 1 29.7003 8.72896 0.00685475 
115 1 27.9472 8.73507 1.72494 
156 2 29.7143 10.4633 1.73258 
514 2 29.6873 8.73778 3.46612 
553 1 27.951 10.488 3.49205 
119 1 31.4635 8.73789 1.73442 
160 1 33.2153 10.4786 1.7401 
518 2 33.2024 8.73846 3.48412 
557 2 31.4677 10.4705 3.48369 
123 2 0.00276844 12.2159 1.74446 
127 2 3.50081 12.2403 1.73562 
161 2 0.00457358 13.959 0.0100126 
164 2 1.73888 13.9776 1.75093 
522 1 1.73373 12.226 3.49573 
565 2 3.49183 13.968 3.49605 
131 2 6.9907 12.2395 1.75912 
168 2 5.24626 13.9802 1.7477 
169 2 6.99707 13.995 0.013889 
526 1 5.24576 12.2297 3.50359 
569 1 6.97361 13.981 3.49897 
135 1 10.4713 12.2201 1.7526 
172 2 8.74292 13.9815 1.76285 
530 2 8.72469 12.2256 3.50212 
573 1 10.4853 13.9823 3.50021 
139 2 13.967 12.2306 1.75501 
176 2 12.2295 13.9648 1.75163 
177 2 13.9766 13.9899 0.0154043 
534 2 12.213 12.2315 3.49591 
577 1 13.9771 13.9688 3.50722 
143 2 17.4665 12.2434 1.74285 
180 1 15.7252 13.979 1.74493 
184 2 19.2005 13.9952 1.74479 
538 2 15.7266 12.2393 3.50657 
542 2 19.233 12.228 3.48988 
581 1 17.4711 13.9796 3.50238 
146 2 22.7172 12.2331 0.0170567 
147 2 20.9686 12.2165 1.76323 
185 2 20.9512 13.9687 0.0167432 
188 2 22.7074 13.9906 1.7652 
546 1 22.7057 12.2178 3.49598 
585 1 20.9713 13.9898 3.49711 
150 1 26.2029 12.2139 0.00678337 
151 2 24.4499 12.2209 1.74607 
189 2 24.4704 13.9775 0.00466004 
192 2 26.2104 13.9904 1.74978 
550 2 26.1987 12.2377 3.48666 
589 2 24.4443 13.9894 3.50294 
154 1 29.707 12.2229 0.013543 
155 2 27.9544 12.2159 1.74658 
193 1 27.9502 13.972 0.00740362 
196 2 29.715 13.9725 1.75246 
554 2 29.7058 12.2254 3.4822 
593 2 27.9614 13.9631 3.49502 
158 1 33.2024 12.2163 0.00636579 
159 2 31.4668 12.2091 1.74056 
197 2 31.4458 13.9553 0.00439597 
200 1 33.2033 13.9664 1.73493 
558 2 33.224 12.2127 3.48815 
561 1 34.9417 13.9716 3.48477 
597 2 31.4708 13.9714 3.48865 
162 1 1.74171 15.734 0.0102558 
163 2 0.00362338 15.7211 1.75375 
167 1 3.48852 15.7131 1.75892 
201 2 0.00353846 17.4757 0.000989935 
202 2 1.74389 19.2073 0.00483964 
203 2 0.00465878 19.2276 1.75675 
204 1 1.75171 17.4623 1.74628 
205 1 3.49238 17.4686 0.00516361 
207 1 3.47158 19.2262 1.74995 
562 2 1.74522 15.7078 3.48528 
601 2 0.00582919 17.4701 3.50598 
602 2 1.73932 19.2311 3.48997 
605 1 3.48004 17.4786 3.49838 
166 1 5.2469 15.7413 0.0112563 
171 1 6.98891 15.7276 1.76925 
206 2 5.22531 19.2122 0.00139326 
208 2 5.2128 17.4795 1.768 
209 2 6.9756 17.4698 0.00970789 
211 2 6.9665 19.2236 1.75335 
566 2 5.24466 15.7311 3.49145 
606 1 5.21043 19.2372 3.49473 
609 1 6.98096 17.4942 3.49247 
175 2 10.4792 15.7076 1.73821 
210 2 8.73164 19.2181 0.0158083 
212 2 8.72882 17.4697 1.76033 
215 2 10.4823 19.2187 1.76392 
570 1 8.7381 15.7218 3.49912 
610 1 8.72167 19.2242 3.49285 
613 2 10.4783 17.4691 3.49269 
179 1 13.9755 15.7252 1.75575 
214 2 12.2395 19.2217 0.0160192 
216 2 12.2494 17.4709 1.7565 
219 2 13.9944 19.2012 1.76209 
574 2 12.2283 15.7225 3.49999 
614 1 12.2347 19.2188 3.49861 
617 1 13.9741 17.4755 3.51073 
178 2 15.7225 15.7431 0.00741945 
183 2 17.459 15.7343 1.74849 
220 1 15.7141 17.4781 1.74646 
222 2 19.2125 19.2174 0.00228493 
223 1 17.4658 19.2133 1.74008 
224 1 19.2126 17.4738 1.75249 
578 2 15.7126 15.7186 3.49269 
582 2 19.2248 15.7341 3.50976 
618 1 15.7387 19.2132 3.50712 
621 2 17.463 17.4737 3.4899 
622 2 19.2122 19.2129 3.48675 
187 2 20.9703 15.7458 1.76232 
225 2 20.9665 17.4782 0.0119721 
226 2 22.7387 19.2213 0.00554219 
227 1 20.9719 19.2112 1.75063 
228 1 22.7247 17.4709 1.74531 
586 1 22.7085 15.7398 3.50505 
625 2 20.9793 17.4806 3.50428 
626 2 22.7359 19.2105 3.49941 
191 2 24.4652 15.7431 1.74561 
230 1 26.2113 19.219 0.00507101 
231 1 24.4786 19.2075 1.75757 
232 1 26.2256 17.4659 1.75348 
590 1 26.2288 15.7146 3.51341 
629 1 24.4809 17.4638 3.49187 
630 1 26.2205 19.2239 3.50338 
195 2 27.9556 15.7316 1.74266 
235 1 27.9597 19.2129 1.74372 
236 2 29.6976 17.471 1.75554 
594 2 29.7067 15.7196 3.50915 
633 2 27.9543 17.477 3.49755 
634 2 29.7003 19.2232 3.50439 
199 2 31.4609 15.7205 1.74313 
239 2 31.4427 19.226 1.74955 
240 2 33.204 17.4727 1.74266 
598 2 33.2067 15.7292 3.49961 
637 2 31.4584 17.4742 3.5043 
638 1 33.2052 19.2099 3.48962 
242 2 1.72279 22.7249 0.00190448 
244 1 1.73057 20.9712 1.73629 
247 2 3.49499 22.703 1.75288 
642 2 1.72957 22.7257 3.487 
645 2 3.47454 20.9765 3.49093 
248 1 5.24224 20.9623 1.73145 
251 1 6.98872 22.7115 1.73959 
646 2 5.2529 22.7039 3.49128 
649 2 6.97913 20.9675 3.49834 
250 2 8.7375 22.7164 0.0171206 
252 2 8.7197 20.9781 1.75969 
255 2 10.4654 22.7221 1.75228 
650 1 8.72109 22.725 3.49189 
653 2 10.4717 20.9591 3.49807 
254 2 12.2351 22.7209 0.0117275 
256 2 12.2328 20.9681 1.75665 
257 2 13.9922 20.9591 0.0116878 
259 2 13.9806 22.7226 1.77243 
654 2 12.2198 22.7164 3.49894 
657 2 13.9897 20.954 3.50299 
258 2 15.7337 22.7118 0.00244939 
260 2 15.7431 20.9475 1.74495 
263 2 17.4799 22.7162 1.75583 
264 2 19.2179 20.9461 1.74699 
658 2 15.738 22.7002 3.5147 
661 1 17.4756 20.9552 3.50398 
662 2 19.2302 22.7142 3.49674 
265 2 20.9721 20.9779 0.0141128 
266 1 22.708 22.7087 0.0128575 
267 2 20.9806 22.7138 1.75461 
268 2 22.7328 20.9563 1.75585 
665 1 20.9799 20.9437 3.49468 
666 1 22.71 22.7247 3.50548 
269 1 24.4798 20.9744 0.00422877 
270 1 26.2218 22.7248 0.0152953 
271 1 24.4592 22.7248 1.76387 
272 1 26.2176 20.9767 1.7635 
669 2 24.4591 20.9729 3.48646 
670 2 26.2228 22.7241 3.49178 
273 2 27.9418 20.9609 0.00412276 
274 2 29.7136 22.7155 0.00433559 
275 2 27.9699 22.7148 1.7601 
276 2 29.7078 20.9702 1.74087 
673 2 27.9665 20.9598 3.50138 
674 1 29.7156 22.7079 3.49506 
243 2 34.9218 22.7174 1.737 
279 1 31.4601 22.7102 1.74576 
280 1 33.1856 20.9632 1.74034 
641 1 34.9365 20.9677 3.48993 
677 2 31.462 20.9622 3.49703 
678 2 33.1859 22.7097 3.48396 
284 1 1.74821 24.4694 1.74944 
285 2 3.48454 24.4664 0.000688292 
287 2 3.50151 26.2025 1.75424 
682 1 1.73449 26.1908 3.49278 
685 1 3.50807 24.4539 3.49376 
286 1 5.24583 26.1875 0.00729248 
288 2 5.24843 24.4512 1.74431 
289 2 6.98835 24.471 0.01263 
291 1 6.98171 26.2263 1.74885 
686 2 5.24132 26.2167 3.49329 
689 1 6.99095 24.4703 3.48569 
290 2 8.71847 26.2353 0.0128749 
292 1 8.72967 24.4724 1.74793 
295 2 10.4742 26.2287 1.74674 
690 2 8.73455 26.225 3.48138 
693 2 10.469 24.4699 3.49328 
294 2 12.2457 26.2214 0.0070165 
296 2 12.2165 24.4816 1.75425 
297 2 13.9931 24.476 0.0101933 
299 2 13.9868 26.2224 1.76418 
694 1 12.2309 26.2122 3.50004 
697 2 13.9831 24.4732 3.52161 
298 1 15.7356 26.2039 0.00352389 
300 2 15.7432 24.4653 1.75116 
303 1 17.4689 26.2148 1.73618 
304 2 19.2154 24.482 1.74056 
698 2 15.7156 26.2155 3.49945 
701 1 17.4636 24.4715 3.51285 
702 2 19.2106 26.2111 3.50564 
306 1 22.7086 26.2301 0.00643909 
307 2 20.9597 26.2232 1.75242 
308 2 22.7141 24.466 1.75327 
705 1 20.9739 24.481 3.49231 
706 2 22.7342 26.202 3.49553 
309 2 24.4448 24.4548 0.0122352 
310 2 26.2029 26.2025 0.00442525 
311 2 24.4778 26.2063 1.74956 
312 2 26.2217 24.4618 1.7639 
709 1 24.4895 24.4761 3.50117 
710 1 26.218 26.2274 3.50253 
313 2 27.966 24.4711 0.00299102 
314 2 29.7164 26.2264 0.00110082 
315 1 27.9645 26.2175 1.74699 
316 2 29.7197 24.4651 1.75967 
713 2 27.9689 24.4753 3.49748 
714 1 29.7194 26.224 3.49933 
283 2 34.9333 26.1913 1.73097 
319 2 31.4465 26.2108 1.73854 
320 1 33.1748 24.4613 1.72968 
681 1 34.9136 24.4686 3.48239 
717 2 31.4569 24.4651 3.49976 
718 2 33.1894 26.2186 3.48279 
324 2 1.73853 27.9346 1.74255 
327 2 3.4944 29.6962 1.75525 
722 2 1.75194 29.6936 3.49746 
725 2 3.48251 27.9565 3.49204 
326 1 5.22794 29.7056 0.00354289 
328 2 5.24087 27.9604 1.73903 
331 2 6.9809 29.6981 1.74237 
726 1 5.22717 29.7086 3.50786 
729 2 6.98442 27.9637 3.48972 
332 1 8.72108 27.9756 1.74181 
333 2 10.4954 27.981 0.0124753 
335 2 10.4796 29.7126 1.75158 
730 1 8.72968 29.711 3.49751 
733 2 10.5003 27.9759 3.47693 
334 2 12.2357 29.7211 0.00957078 
336 1 12.2516 27.967 1.74857 
339 2 13.9785 29.7105 1.74261 
734 1 12.2467 29.7177 3.49729 
737 1 13.9753 27.9673 3.50929 
338 1 15.722 29.7092 0.0126873 
340 2 15.7223 27.9576 1.73365 
342 1 19.2313 29.7045 0.00717199 
343 2 17.4868 29.6938 1.7578 
344 1 19.217 27.9569 1.7509 
738 2 15.7247 29.7104 3.49413 
741 2 17.4651 27.9517 3.49128 
742 2 19.2209 29.7066 3.50008 
345 2 20.9605 27.9731 0.00668652 
346 2 22.6969 29.7153 0.00502727 
347 1 20.9669 29.7196 1.7492 
348 2 22.7039 27.9673 1.7624 
745 2 20.9632 27.958 3.50945 
746 2 22.7073 29.7177 3.50278 
349 2 24.4596 27.9575 0.00486675 
351 2 24.4616 29.7138 1.7513 
352 2 26.2237 27.967 1.74845 
749 2 24.4692 27.9502 3.50372 
750 2 26.2192 29.7174 3.4916 
353 2 27.9657 27.9668 0.00299561 
355 1 27.9604 29.7235 1.74893 
356 2 29.7079 27.9684 1.74835 
753 2 27.9661 27.9628 3.48888 
754 2 29.7161 29.7196 3.48295 
323 2 34.9406 29.7065 1.74674 
357 1 31.4514 27.9675 0.01183 
359 2 31.4641 29.7145 1.74056 
360 1 33.1967 27.9584 1.7341 
721 2 34.9375 27.9421 3.48838 
757 2 31.4672 27.9709 3.49123 
758 1 33.2098 29.7039 3.50462 
363 1 0.00711618 33.1805 1.74006 
364 2 1.73915 31.4478 1.74648 
365 2 3.49713 31.4502 0.0120766 
367 2 3.47967 33.2113 1.74442 
405 2 3.49164 34.9408 3.49971 
762 2 1.73359 33.1976 3.49287 
765 1 3.48761 31.4543 3.48607 
366 1 5.24226 33.2123 0.0106845 
368 2 5.23753 31.4544 1.75025 
369 2 6.98549 31.4505 0.00338689 
371 2 7.00163 33.2189 1.74701 
766 2 5.23699 33.1973 3.48078 
769 2 6.97542 31.4431 3.51407 
13 2 10.4838 34.9366 0.00729161 
370 2 8.74052 33.184 0.0125586 
372 2 8.73144 31.4428 1.76044 
373 1 10.4729 31.4534 0.00676285 
375 1 10.4703 33.1833 1.76137 
770 2 8.7345 33.1878 3.49637 
773 2 10.4802 31.4436 3.49962 
16 2 12.2233 34.9347 1.75276 
17 2 13.9738 34.927 0.00038609 
374 1 12.2311 33.1969 0.0109903 
376 2 12.2293 31.457 1.75336 
379 1 13.9865 33.1851 1.76172 
774 2 12.2338 33.1937 3.49758 
777 2 13.9877 31.4485 3.50269 
20 2 15.7268 34.9427 1.76232 
380 2 15.7292 31.4531 1.76051 
381 2 17.4762 31.434 0.0115661 
383 2 17.4643 33.2006 1.75209 
384 2 19.2172 31.4572 1.73746 
778 2 15.7223 33.2091 3.51698 
781 1 17.4748 31.461 3.50736 
782 2 19.2094 33.2155 3.49775 
25 2 20.9586 34.9376 0.000841377 
385 1 20.9668 31.4628 0.000547945 
387 2 20.9589 33.2128 1.743 
388 2 22.7087 31.4736 1.74504 
785 2 20.9544 31.4712 3.48703 
786 2 22.7249 33.227 3.48936 
391 2 24.4691 33.2231 1.74625 
392 2 26.2163 31.474 1.73812 
789 2 24.4682 31.4738 3.49505 
790 1 26.2167 33.1978 3.50532 
395 2 27.9741 33.214 1.73843 
396 2 29.7186 31.4631 1.73668 
793 2 27.9766 31.4712 3.49189 
794 1 29.7236 33.2006 3.48939 
1 1 34.9394 34.9348 0.00638487 
37 2 31.4631 34.9416 0.00112573 
40 2 33.1947 34.9293 1.73793 
398 2 33.1995 33.1735 0.00170999 
399 1 31.461 33.1784 1.73692 
400 1 33.2109 31.4478 1.75389 
437 1 31.4512 34.9453 3.47993 
761 2 34.9437 31.454 3.50221 
797 1 31.463 31.4487 3.48765 
798 1 33.2089 33.2064 3.48895 
404 2 1.74032 0.0145673 5.2566 
407 2 3.50266 1.74788 5.22621 
444 1 1.74354 3.49142 5.22407 
802 2 1.74731 1.74707 6.99012 
805 1 3.49879 0.0108223 6.98544 
845 2 3.48092 3.4927 6.99141 
408 1 5.2396 0.00140123 5.22443 
411 1 6.98299 1.74002 5.25353 
448 2 5.23539 3.48632 5.2481 
806 1 5.23326 1.74435 6.98132 
809 1 6.98399 0.00442197 6.99304 
849 2 6.98329 3.48524 6.99869 
415 2 10.4879 1.75221 5.25337 
452 2 8.73287 3.48684 5.23796 
810 1 8.73466 1.7527 6.99132 
853 2 10.4923 3.49326 6.99631 
419 1 13.9612 1.74138 5.26097 
456 2 12.2415 3.48533 5.25303 
814 1 12.2242 1.74463 7.00701 
857 1 13.988 3.46928 7.00182 
420 1 15.7153 0.0163323 5.26354 
423 1 17.4758 1.75389 5.25028 
424 2 19.2108 0.00763921 5.24026 
460 2 15.7121 3.47414 5.25201 
464 2 19.2347 3.49318 5.24338 
818 2 15.7292 1.75085 6.99285 
821 2 17.4767 0.00892301 7.00427 
822 2 19.2215 1.75008 6.99466 
861 2 17.4654 3.49872 7.0071 
427 1 20.9754 1.73594 5.25321 
428 2 22.7279 0.0177979 5.23713 
468 1 22.6981 3.49318 5.23013 
826 1 22.7243 1.7445 6.99528 
865 2 20.9801 3.49085 6.98144 
431 2 24.4607 1.755 5.22929 
432 1 26.2218 0.00960083 5.23691 
472 2 26.2026 3.49961 5.23671 
829 2 24.4651 0.00143106 6.98733 
830 2 26.2132 1.74888 6.98207 
869 2 24.44 3.50305 6.99211 
435 1 27.9587 1.75012 5.2377 
436 2 29.7191 0.00454152 5.2273 
476 2 29.7092 3.49164 5.23368 
833 2 27.9684 0.0131568 6.97899 
834 1 29.7175 1.75734 6.98206 
873 2 27.9673 3.50073 6.97884 
403 2 34.9328 1.75155 5.23824 
439 1 31.4601 1.75528 5.24578 
440 1 33.1874 0.0089962 5.22198 
480 2 33.2037 3.48874 5.24508 
801 1 34.9268 0.00897679 6.98543 
837 2 31.4605 0.00320897 6.96912 
838 2 33.1908 1.749 7.00088 
841 1 34.9409 3.49304 6.98468 
877 2 31.4568 3.51636 6.98801 
443 2 0.000862181 5.23377 5.24501 
447 2 3.49303 5.23314 5.22873 
484 2 1.7581 6.97799 5.24216 
842 2 1.74313 5.23684 6.98017 
881 2 0.00292612 6.97756 6.98681 
885 1 3.49051 6.97155 6.98321 
451 2 6.9944 5.22894 5.25342 
488 1 5.24396 6.97669 5.24196 
846 2 5.23869 5.24486 7.00294 
889 1 6.99111 6.96586 6.98838 
455 1 10.4819 5.22888 5.24176 
492 2 8.73053 6.98543 5.24599 
850 2 8.74123 5.22541 7.00801 
893 1 10.4739 6.96997 6.99064 
459 1 13.9866 5.23454 5.25943 
496 2 12.2407 6.97758 5.25849 
854 2 12.2377 5.23004 6.99466 
897 1 13.9793 6.98617 6.9977 
463 2 17.4786 5.22566 5.26184 
500 2 15.7125 6.9897 5.25297 
504 2 19.2152 6.98288 5.24276 
858 1 15.7124 5.23107 7.00036 
862 1 19.2343 5.22539 7.0036 
901 1 17.4884 6.9834 6.98949 
467 1 20.9575 5.25235 5.24066 
508 2 22.7214 6.97567 5.24245 
866 2 22.6941 5.23984 6.9876 
905 2 20.9531 6.99139 6.98913 
471 2 24.4546 5.25234 5.23505 
512 1 26.212 7.0004 5.22766 
870 2 26.2188 5.26397 6.97867 
909 2 24.4683 7.00424 6.98691 
475 1 27.9559 5.23541 5.23413 
516 2 29.6903 6.98371 5.23561 
874 1 29.7064 5.25818 6.9793 
913 2 27.9605 6.99888 6.97796 
479 2 31.4458 5.23964 5.24763 
520 2 33.1957 7.00359 5.23913 
878 2 33.1918 5.25002 6.99632 
917 1 31.451 7.00007 6.97792 
483 2 0.00818207 8.73852 5.23872 
487 2 3.50876 8.72285 5.25922 
524 2 1.73743 10.4834 5.24433 
882 1 1.7379 8.72177 6.9908 
925 1 3.49006 10.4756 6.98261 
491 1 6.98212 8.73974 5.25255 
528 2 5.25403 10.4678 5.25726 
886 1 5.24896 8.71224 6.99702 
929 1 6.97761 10.4876 7.00253 
495 2 10.4786 8.73 5.25579 
532 1 8.72423 10.4826 5.24627 
890 2 8.72221 8.74267 6.98557 
933 1 10.4844 10.4806 7.00289 
499 1 13.9733 8.74132 5.25452 
536 2 12.2228 10.4834 5.2442 
894 2 12.2376 8.73196 6.99856 
937 1 13.9795 10.4947 6.99241 
503 2 17.4694 8.72913 5.24949 
540 1 15.732 10.4708 5.24799 
544 2 19.2109 10.4715 5.23117 
898 1 15.7095 8.73451 6.98458 
902 1 19.2339 8.74688 6.9871 
941 2 17.4664 10.4631 6.98589 
507 2 20.9649 8.72875 5.2301 
548 2 22.7108 10.4855 5.21978 
906 2 22.7127 8.73074 6.99055 
945 2 20.9668 10.4803 6.96734 
511 1 24.4442 8.73417 5.22506 
552 2 26.2135 10.4784 5.22983 
910 1 26.2143 8.73932 6.96276 
949 2 24.4599 10.4697 6.98817 
515 1 27.9721 8.73561 5.23558 
556 2 29.7096 10.4938 5.22387 
914 2 29.7012 8.72823 6.99498 
953 2 27.9748 10.4735 6.96529 
519 2 31.4365 8.7402 5.23057 
560 1 33.2026 10.4647 5.24125 
918 2 33.2 8.74379 6.99254 
921 2 34.9408 10.4826 6.98592 
957 1 31.4434 10.4752 6.98235 
527 2 3.48713 12.223 5.23974 
564 1 1.74655 13.9622 5.23612 
922 2 1.74387 12.226 6.97705 
965 2 3.48237 13.9695 6.99533 
531 2 6.98167 12.2192 5.24956 
568 2 5.22913 13.983 5.25209 
926 1 5.23432 12.2355 6.99724 
969 1 6.97891 13.9878 6.99023 
535 2 10.4746 12.2135 5.23076 
572 2 8.73296 13.9668 5.23616 
930 1 8.7415 12.225 6.99107 
973 2 10.4652 13.966 6.97341 
539 2 13.9777 12.2252 5.25218 
576 1 12.213 13.9797 5.24876 
934 2 12.2138 12.2236 6.99198 
977 2 13.9713 13.9614 6.97923 
543 2 17.4784 12.2419 5.2428 
580 1 15.7288 13.9778 5.25756 
584 2 19.2237 13.995 5.22965 
938 2 15.7275 12.2133 6.98573 
942 2 19.2243 12.2272 6.98427 
981 2 17.478 13.9892 6.98221 
547 1 20.9561 12.2202 5.22468 
588 1 22.7019 13.9683 5.24116 
946 2 22.7125 12.2223 6.96736 
985 2 20.9635 13.9916 6.96623 
551 2 24.4553 12.2203 5.24084 
592 1 26.2039 13.9606 5.23497 
950 2 26.2105 12.2177 6.98045 
989 2 24.4675 13.9726 6.98867 
555 1 27.9635 12.2395 5.23034 
596 1 29.7237 13.9594 5.23887 
954 2 29.7178 12.2221 6.97646 
993 2 27.9573 13.9571 6.97419 
523 1 34.9426 12.2161 5.23845 
559 2 31.4639 12.2145 5.23549 
600 2 33.2148 13.9697 5.23233 
958 1 33.197 12.2199 6.97901 
961 1 34.9442 13.9734 6.97906 
997 2 31.4727 13.9609 6.98758 
563 1 0.00594899 15.7153 5.23537 
567 2 3.47767 15.7248 5.22786 
604 2 1.73442 17.473 5.23333 
607 2 3.48683 19.238 5.2299 
962 2 1.73446 15.7113 6.98383 
1001 1 0.00181375 17.4734 6.99764 
1002 2 1.72997 19.2207 6.99384 
1005 2 3.47723 17.4662 6.96542 
571 2 6.97945 15.7329 5.23317 
608 1 5.23354 17.4589 5.22868 
611 1 6.96759 19.2167 5.23089 
966 1 5.22016 15.7315 6.98715 
1006 2 5.23007 19.2083 6.96197 
1009 2 6.97078 17.4575 6.97922 
575 2 10.4736 15.7317 5.24067 
612 2 8.71635 17.4916 5.23469 
615 1 10.4819 19.2089 5.22744 
970 2 8.71227 15.715 6.98312 
1010 2 8.72136 19.2204 6.98477 
1013 2 10.4664 17.4771 6.98702 
579 2 13.9828 15.7099 5.24429 
616 2 12.2287 17.4688 5.24043 
619 2 13.9702 19.2279 5.23762 
974 2 12.2252 15.7227 6.98814 
1014 2 12.2211 19.2209 6.979 
1017 2 13.9896 17.4684 6.97957 
583 1 17.4624 15.729 5.23354 
620 2 15.7344 17.4641 5.23573 
623 2 17.475 19.2151 5.24287 
624 1 19.2094 17.4758 5.25134 
978 2 15.7382 15.7224 6.99842 
982 1 19.2187 15.7227 6.97419 
1018 2 15.7252 19.2168 6.99692 
1021 1 17.4683 17.4659 6.99116 
1022 2 19.2315 19.1975 6.99911 
587 1 20.9764 15.7434 5.23466 
627 2 20.981 19.2045 5.24194 
628 1 22.731 17.4808 5.25401 
986 2 22.7041 15.7383 6.97165 
1025 1 20.967 17.467 6.9921 
1026 1 22.723 19.2191 6.9899 
591 2 24.4539 15.7187 5.23857 
631 2 24.473 19.2152 5.2348 
632 2 26.2167 17.4558 5.22975 
990 2 26.2147 15.7071 6.98512 
1029 1 24.483 17.4666 6.98221 
1030 2 26.2101 19.2174 6.97431 
595 2 27.9751 15.7051 5.24356 
635 1 27.958 19.2102 5.24911 
636 1 29.7104 17.4777 5.2466 
994 2 29.7228 15.7144 6.98233 
1033 2 27.9551 17.467 6.97647 
1034 2 29.7153 19.2257 6.99124 
599 2 31.4621 15.7251 5.25394 
603 1 34.9415 19.2133 5.22897 
639 2 31.4629 19.2109 5.24994 
640 1 33.2095 17.4723 5.25688 
998 1 33.2121 15.7171 6.97935 
1037 2 31.4682 17.4714 6.9887 
1038 2 33.2105 19.2177 6.99465 
644 1 1.72764 20.977 5.25624 
647 1 3.478 22.7243 5.2296 
1042 2 1.72262 22.7216 6.98467 
1045 2 3.48897 20.9825 6.98245 
648 1 5.23542 20.9839 5.24314 
651 1 6.99059 22.7148 5.23037 
1046 2 5.24303 22.7354 6.97703 
1049 2 6.97885 20.9739 6.98633 
652 1 8.73169 20.9619 5.23126 
655 2 10.4678 22.7055 5.23909 
1050 2 8.71882 22.7129 6.9776 
1053 2 10.4727 20.9563 6.98648 
656 2 12.2135 20.9663 5.24672 
659 1 13.9671 22.7042 5.2456 
1054 2 12.2276 22.7191 6.99819 
1057 2 13.9737 20.976 6.99153 
660 2 15.7339 20.9684 5.24905 
663 1 17.4937 22.6978 5.2489 
664 2 19.2367 20.9514 5.23748 
1058 2 15.7233 22.717 6.98866 
1061 2 17.488 20.9561 6.99276 
1062 2 19.2337 22.7249 6.98927 
667 2 20.9678 22.7288 5.23015 
668 1 22.7174 20.9736 5.23366 
1065 2 20.9782 20.9624 6.97911 
1066 2 22.718 22.7137 6.9773 
671 2 24.4807 22.7311 5.22368 
672 2 26.2187 20.9772 5.23807 
1069 2 24.4646 20.9595 6.97712 
1070 2 26.2344 22.7154 6.98481 
675 1 27.9728 22.7145 5.23991 
676 2 29.7066 20.9619 5.25353 
1073 2 27.9768 20.9752 6.9853 
1074 1 29.7119 22.7173 6.99127 
643 1 34.9299 22.7229 5.22028 
679 2 31.4477 22.7166 5.24778 
680 2 33.2102 20.962 5.22909 
1041 2 34.9304 20.9639 6.97755 
1077 1 31.4574 20.962 6.9854 
1078 1 33.2016 22.7107 6.98372 
684 2 1.72618 24.4512 5.2117 
687 2 3.50085 26.2011 5.2284 
1082 2 1.75122 26.1998 6.97599 
1085 2 3.48949 24.4662 6.96562 
688 2 5.25425 24.4579 5.22826 
691 1 6.9976 26.2351 5.22918 
1086 1 5.24678 26.2018 6.97915 
1089 2 6.99099 24.4789 6.97879 
692 2 8.72278 24.4614 5.22482 
695 2 10.4794 26.2192 5.24061 
1090 2 8.7171 26.2284 6.98975 
1093 2 10.4795 24.4687 6.98908 
696 2 12.2334 24.4635 5.2456 
699 1 13.9582 26.2248 5.25104 
1094 2 12.2221 26.2141 6.99056 
1097 1 13.9701 24.4647 6.99493 
700 2 15.719 24.4564 5.259 
703 1 17.464 26.2144 5.23987 
704 2 19.2247 24.4797 5.23962 
1098 2 15.7308 26.2088 6.99038 
1101 2 17.4784 24.4687 6.97432 
1102 1 19.2203 26.2049 6.97979 
707 1 20.9854 26.205 5.24268 
708 2 22.7281 24.4711 5.24327 
1105 1 20.9771 24.4711 6.99882 
1106 2 22.7027 26.2294 6.99608 
711 1 24.4693 26.2194 5.2445 
712 1 26.2377 24.468 5.2377 
1109 2 24.4608 24.4703 6.9708 
1110 2 26.2215 26.2152 6.96769 
715 2 27.9649 26.215 5.23213 
716 2 29.7178 24.4636 5.23418 
1113 2 27.98 24.456 6.99168 
1114 2 29.7141 26.2043 6.97571 
683 2 34.9235 26.1904 5.23557 
719 1 31.4686 26.2225 5.23972 
720 1 33.1782 24.4497 5.24167 
1081 2 34.9192 24.4482 6.986 
1117 1 31.4505 24.4655 6.98558 
1118 2 33.1947 26.1978 6.99145 
723 2 0.00825542 29.7031 5.24562 
724 2 1.73419 27.9441 5.23692 
727 1 3.48412 29.707 5.24347 
1122 2 1.74108 29.7067 6.98919 
1125 2 3.48923 27.9477 6.98168 
728 2 5.23324 27.9581 5.24287 
731 2 6.98689 29.7002 5.24907 
1126 2 5.24082 29.6984 6.97772 
1129 2 6.98645 27.9557 7.00336 
732 2 8.74078 27.9821 5.23387 
735 2 10.4734 29.7203 5.24126 
1130 1 8.73026 29.7047 7.01187 
1133 2 10.4722 27.9672 7.00723 
736 2 12.2279 27.9755 5.23498 
739 2 13.9875 29.7155 5.24621 
1134 2 12.2137 29.7163 6.97934 
1137 2 13.9749 27.9556 6.98785 
740 2 15.7294 27.9663 5.2524 
743 1 17.4666 29.7111 5.23349 
744 1 19.2212 27.9498 5.24294 
1138 2 15.7482 29.7063 6.99438 
1141 2 17.4841 27.9537 6.99642 
1142 1 19.1986 29.7007 6.97649 
747 1 20.9661 29.7255 5.24217 
748 1 22.7065 27.9636 5.23915 
1145 1 20.9624 27.9746 6.98315 
1146 1 22.7264 29.7088 6.97541 
751 2 24.4577 29.6975 5.23487 
752 1 26.2212 27.9703 5.23688 
1149 2 24.4575 27.9648 6.97352 
1150 2 26.2055 29.712 6.99274 
755 2 27.9683 29.7108 5.24326 
756 2 29.7208 27.9696 5.24918 
1153 2 27.9675 27.9603 6.98931 
1154 2 29.7171 29.7233 7.00575 
759 2 31.4596 29.7077 5.24571 
760 1 33.2098 27.9622 5.24433 
1121 2 34.9422 27.9569 6.99612 
1157 2 31.4694 27.9524 7.00183 
1158 2 33.2066 29.6996 6.98849 
764 2 1.74572 31.4525 5.24738 
767 2 3.48981 33.1985 5.23591 
1162 2 1.73257 33.2119 6.995 
1165 2 3.49464 31.4613 6.97718 
768 2 5.23602 31.4572 5.24687 
771 2 6.98626 33.2056 5.24828 
1166 2 5.24381 33.2135 6.99436 
1169 1 6.98349 31.4469 6.98946 
412 2 8.72637 34.9391 5.25855 
772 1 8.72966 31.4487 5.25117 
775 2 10.4936 33.1904 5.24836 
813 1 10.4918 34.9383 6.98392 
1170 2 8.73646 33.2002 6.99908 
1173 2 10.4652 31.4613 6.99641 
416 2 12.2383 34.9346 5.25431 
776 1 12.2255 31.4569 5.24377 
779 1 13.9752 33.1919 5.24686 
817 2 13.9599 34.9415 6.9966 
1174 1 12.2336 33.186 6.99571 
1177 2 13.976 31.4584 6.98467 
780 1 15.7273 31.4536 5.24681 
783 2 17.4483 33.2014 5.26607 
784 2 19.2006 31.4473 5.25186 
1178 2 15.7161 33.2012 7.00485 
1181 2 17.4794 31.45 6.99977 
1182 1 19.2121 33.2014 6.98312 
787 2 20.9616 33.2027 5.23902 
788 2 22.7155 31.4513 5.24233 
825 2 20.9736 34.9407 6.98002 
1185 2 20.9527 31.4397 6.98854 
1186 2 22.7037 33.199 6.99468 
791 2 24.4744 33.2103 5.239 
792 2 26.2276 31.4575 5.24306 
1189 2 24.4634 31.4596 6.98903 
1190 2 26.2315 33.218 6.98129 
795 2 27.9821 33.2155 5.2417 
796 1 29.7133 31.4584 5.2331 
1193 2 27.9777 31.4655 6.99416 
1194 1 29.714 33.1961 6.99236 
763 2 34.9291 33.2076 5.24178 
799 1 31.4593 33.192 5.2344 
800 2 33.1954 31.4514 5.22863 
1161 1 34.9323 31.4477 6.99424 
1197 2 31.4551 31.4559 6.98174 
1198 2 33.1944 33.2105 6.97448 
803 1 0.00417322 1.74443 8.72354 
804 1 1.74009 0.000506018 8.73153 
807 2 3.49927 1.7489 8.73486 
844 2 1.73771 3.48966 8.73916 
1201 2 0.00741645 0.0210767 10.4631 
1202 1 1.74094 1.76068 10.4684 
1205 2 3.48339 0.0145472 10.4683 
1241 1 0.000523015 3.49544 10.477 
1245 1 3.50344 3.48224 10.4941 
808 1 5.23595 0.00580549 8.72816 
811 1 6.97173 1.73996 8.72689 
848 1 5.24596 3.49795 8.73619 
1206 1 5.24093 1.74149 10.4823 
1209 2 6.9836 0.0107608 10.4774 
1249 1 6.97804 3.47615 10.482 
812 1 8.74597 0.00547497 8.72653 
815 2 10.4737 1.74339 8.73471 
852 2 8.729 3.4878 8.75121 
1210 2 8.72133 1.73987 10.479 
1253 1 10.4861 3.4701 10.4779 
819 2 13.9833 1.73401 8.73047 
856 1 12.2307 3.4883 8.72918 
1214 2 12.2318 1.74198 10.4782 
1257 2 13.9698 3.50076 10.4769 
823 1 17.4804 1.75707 8.75968 
860 2 15.7156 3.49065 8.76008 
864 2 19.2381 3.48551 8.75523 
1218 2 15.7366 1.7315 10.492 
1222 1 19.2302 1.74339 10.5016 
1261 2 17.4757 3.48672 10.5016 
827 2 20.9661 1.73655 8.73103 
868 1 22.7 3.49728 8.7329 
1226 2 22.7152 1.75846 10.4711 
1265 2 20.9838 3.49223 10.4987 
831 2 24.4516 1.74365 8.73434 
832 1 26.2204 0.0173954 8.73816 
872 2 26.1885 3.50384 8.72704 
1229 2 24.4628 0.0130222 10.4844 
1230 1 26.1935 1.76574 10.4724 
1269 1 24.4486 3.50122 10.4643 
835 2 27.9607 1.75237 8.73202 
836 2 29.7085 0.00523851 8.72368 
876 2 29.7164 3.51169 8.72869 
1233 2 27.949 0.0285667 10.4803 
1234 1 29.6985 1.75764 10.4782 
1273 2 27.9484 3.50401 10.4772 
839 2 31.4549 1.76903 8.73614 
840 1 33.1858 0.00998858 8.73774 
880 1 33.1937 3.51432 8.73718 
1237 2 31.4532 0.034916 10.4809 
1238 1 33.206 1.76778 10.4637 
1277 1 31.4434 3.48698 10.4814 
843 1 0.00855208 5.2463 8.73219 
847 2 3.49842 5.23274 8.74482 
884 2 1.75934 6.9781 8.73224 
1242 2 1.74832 5.22124 10.4987 
1285 2 3.50449 6.97557 10.4768 
851 1 6.97511 5.24322 8.75573 
888 1 5.24158 6.98118 8.73757 
1246 1 5.2418 5.24339 10.4869 
1289 1 6.98595 6.99209 10.5007 
855 1 10.4921 5.23642 8.74521 
892 2 8.72927 6.96556 8.74273 
1250 1 8.74055 5.22886 10.4899 