ITEM: TIMESTEP
1000
ITEM: NUMBER OF ATOMS
4001
ITEM: BOX BOUNDS pp pp pp
0.0000000000000000e+00 3.4945000000000000e+01
0.0000000000000000e+00 3.4945000000000000e+01
0.0000000000000000e+00 3.4945000000000000e+01
ITEM: ATOMS id type x y z 
2 1 1.72674 1.75139 0.00626439 
4 2 1.72883 0.00841037 1.73958 
7 1 3.49144 1.73616 1.7414 
41 1 0.00865323 3.50659 0.00207899 
44 2 1.75014 3.48997 1.74403 
45 2 3.48609 3.49119 0.0126586 
402 2 1.75199 1.75111 3.47667 
445 2 3.5028 3.49148 3.47961 
6 2 5.2338 1.74316 0.00518756 
8 2 5.25199 0.0101353 1.75453 
11 1 6.99667 1.74801 1.74308 
48 2 5.2403 3.4825 1.74344 
406 1 5.24239 1.74611 3.49208 
409 2 6.99547 0.0206136 3.50203 
449 1 6.9727 3.48341 3.4977 
10 2 8.75283 1.75068 0.00620997 
12 1 8.74668 0.00838791 1.74633 
15 2 10.4902 1.7394 1.74462 
52 2 8.74039 3.48749 1.75781 
53 1 10.489 3.49332 0.00613039 
410 2 8.72812 1.7512 3.50443 
413 2 10.4755 0.00652141 3.50473 
453 1 10.4852 3.47891 3.49841 
19 1 13.974 1.73828 1.7479 
56 2 12.2328 3.47592 1.7567 
57 2 13.965 3.4788 0.0156149 
414 1 12.2292 1.74496 3.50118 
417 2 13.9783 0.0110442 3.50592 
457 1 13.9892 3.47075 3.49792 
18 2 15.7172 1.74947 0.00999179 
23 2 17.4712 1.74066 1.76161 
24 1 19.207 0.00539676 1.75767 
60 2 15.7137 3.4907 1.75378 
64 2 19.212 3.46936 1.74338 
418 1 15.7201 1.73194 3.50952 
421 2 17.4731 0.00279394 3.5159 
422 1 19.2157 1.74234 3.50532 
461 2 17.4654 3.48378 3.5048 
27 1 20.9542 1.73183 1.72924 
28 1 22.7057 0.00186904 1.75104 
68 2 22.717 3.46342 1.73881 
425 1 20.9606 0.0145558 3.49885 
426 1 22.7096 1.74405 3.4941 
465 2 20.9574 3.47112 3.4986 
29 2 24.4646 0.0101831 0.00189542 
31 1 24.4691 1.73914 1.74241 
32 1 26.2195 0.00192066 1.7567 
72 1 26.2084 3.50275 1.74634 
429 1 24.4754 0.0156829 3.48942 
430 1 26.2183 1.76366 3.49323 
469 2 24.4539 3.48169 3.48623 
34 2 29.693 1.75121 0.00104741 
35 1 27.9565 1.74352 1.74277 
73 1 27.9576 3.47769 0.000189256 
76 1 29.7081 3.49113 1.75566 
433 1 27.9638 0.00575053 3.49178 
434 1 29.7212 1.75541 3.48445 
473 2 27.967 3.48567 3.48276 
3 1 34.9336 1.75336 1.74475 
39 1 31.4527 1.75979 1.71789 
80 2 33.1877 3.50086 1.72809 
401 2 34.9321 0.00209909 3.48474 
438 2 33.1733 1.74138 3.47836 
441 2 34.9304 3.4941 3.4867 
477 1 31.4569 3.49659 3.49089 
43 2 0.0108387 5.24267 1.73235 
47 1 3.50731 5.25308 1.74793 
84 2 1.75897 6.99107 1.74083 
442 2 1.75037 5.23757 3.48415 
481 2 0.00755576 6.99668 3.48792 
485 2 3.50546 6.98365 3.5017 
51 2 6.9831 5.22075 1.75215 
88 2 5.26119 6.97834 1.74777 
446 2 5.24556 5.23546 3.48693 
489 2 6.9922 6.97927 3.51705 
50 2 8.73251 5.23623 0.0109172 
55 2 10.497 5.23463 1.76508 
92 1 8.73422 6.97131 1.76448 
450 2 8.73925 5.22304 3.49764 
493 2 10.4933 6.9783 3.50852 
54 2 12.2394 5.22297 0.00439403 
59 1 13.977 5.23295 1.74393 
96 2 12.244 6.99393 1.73611 
97 2 13.9932 6.97471 0.0109063 
454 2 12.25 5.2181 3.50614 
497 1 13.9805 6.99109 3.48575 
58 1 15.7108 5.23863 0.00739306 
63 2 17.4558 5.23484 1.74457 
100 1 15.7256 6.97538 1.76324 
104 2 19.1921 6.9794 1.73059 
458 2 15.7148 5.22773 3.50142 
462 1 19.2163 5.23519 3.48588 
501 2 17.4679 6.97787 3.4955 
67 2 20.9537 5.22153 1.75107 
108 2 22.7103 6.98461 1.73785 
466 2 22.6886 5.22559 3.4918 
505 2 20.9458 6.99169 3.48126 
71 2 24.4558 5.23029 1.7435 
112 2 26.2247 6.97162 1.74288 
470 2 26.2139 5.23185 3.50035 
509 2 24.4702 6.99022 3.47733 
74 1 29.7075 5.2336 0.00454157 
75 2 27.9707 5.23721 1.74673 
116 1 29.6992 6.99504 1.75151 
474 2 29.7037 5.23404 3.49231 
513 1 27.9543 6.98531 3.49588 
79 2 31.4409 5.24431 1.74823 
120 2 33.1891 6.99929 1.72985 
478 2 33.1965 5.25004 3.48976 
517 2 31.4397 6.9877 3.49352 
83 2 0.00081565 8.73451 1.73541 
87 2 3.52036 8.71882 1.7435 
124 2 1.74447 10.4797 1.73811 
482 2 1.77046 8.74438 3.49966 
521 1 0.00914642 10.4652 3.48995 
525 2 3.50562 10.4837 3.50027 
91 2 6.98825 8.71707 1.75698 
128 2 5.24674 10.4781 1.74426 
129 2 7.00001 10.4814 0.0111856 
486 1 5.25198 8.71492 3.50434 
529 1 6.97403 10.4673 3.47889 
95 2 10.4896 8.73136 1.73439 
132 2 8.7543 10.4623 1.74765 
490 2 8.7218 8.73337 3.50176 
533 1 10.4813 10.4594 3.49253 
99 1 13.9846 8.73862 1.73428 
136 1 12.2218 10.4792 1.75044 
137 2 13.9577 10.4825 0.00450501 
494 2 12.241 8.73211 3.49057 
537 2 13.9645 10.4749 3.50769 
103 2 17.4502 8.72844 1.73746 
140 2 15.7064 10.4829 1.75472 
144 2 19.2274 10.476 1.73662 
498 2 15.7215 8.73358 3.50467 
502 1 19.2058 8.73381 3.47204 
541 2 17.4798 10.4924 3.48996 
107 2 20.9551 8.74124 1.72879 
148 1 22.7022 10.4706 1.73914 
506 2 22.6988 8.73616 3.48239 
545 1 20.9603 10.4633 3.49861 
111 2 24.4662 8.72712 1.73017 
152 2 26.1992 10.476 1.735 
510 2 26.2233 8.73495 3.50108 
549 2 24.4497 10.4715 3.47137 
114 1 29.7002 8.72806 0.00630194 
115 1 27.9473 8.7341 1.72423 
156 2 29.7145 10.4624 1.73189 
514 2 29.6876 8.73659 3.46523 
553 1 27.9516 10.487 3.49105 
119 1 31.4636 8.73685 1.73373 
160 1 33.2154 10.4777 1.73946 
518 2 33.2026 8.73733 3.48329 
557 2 31.468 10.4695 3.48283 
123 2 0.00275456 12.2152 1.7439 
127 2 3.50079 12.2398 1.73522 
161 2 0.00451412 13.9586 0.00967235 
164 2 1.73883 13.9773 1.75038 
522 1 1.73374 12.2253 3.49492 
565 2 3.49171 13.9677 3.49536 
131 2 6.99076 12.2393 1.75894 
168 2 5.24617 13.9801 1.74751 
169 2 6.99695 13.9948 0.0140621 
526 1 5.24569 12.2293 3.50302 
569 1 6.97349 13.981 3.4987 
135 1 10.4715 12.2202 1.7526 
172 2 8.74296 13.9817 1.76294 
530 2 8.72467 12.2257 3.50181 
573 1 10.4854 13.9828 3.50033 
139 2 13.9671 12.2308 1.75521 
176 2 12.2296 13.9651 1.7518 
177 2 13.9767 13.9902 0.0155548 
534 2 12.213 12.2319 3.49604 
577 1 13.9771 13.9692 3.50751 
143 2 17.4666 12.2435 1.74298 
180 1 15.7253 13.9792 1.74512 
184 2 19.2006 13.9953 1.74486 
538 2 15.7267 12.2397 3.50685 
542 2 19.2333 12.2281 3.48998 
581 1 17.4713 13.9797 3.50266 
146 2 22.7173 12.2329 0.01683 
147 2 20.9688 12.2164 1.76306 
185 2 20.9513 13.9688 0.0166821 
188 2 22.7078 13.9905 1.76491 
546 1 22.7062 12.2176 3.49545 
585 1 20.9717 13.9898 3.49691 
150 1 26.203 12.2134 0.0064359 
151 2 24.4502 12.2206 1.74567 
189 2 24.4706 13.9773 0.00449792 
192 2 26.2108 13.9902 1.74933 
550 2 26.1994 12.2372 3.48586 
589 2 24.445 13.9893 3.50233 
154 1 29.7071 12.2223 0.0131369 
155 2 27.9547 12.2153 1.74596 
193 1 27.9504 13.9716 0.00712362 
196 2 29.7154 13.972 1.75182 
554 2 29.7064 12.2246 3.48119 
593 2 27.9621 13.9628 3.49412 
158 1 33.2024 12.2156 0.00594919 
159 2 31.467 12.2083 1.73993 
197 2 31.4459 13.9547 0.00405773 
200 1 33.2035 13.9659 1.73429 
558 2 33.2242 12.212 3.48729 
561 1 34.9418 13.9711 3.48394 
597 2 31.4712 13.9709 3.48768 
162 1 1.74146 15.7339 0.010104 
163 2 0.00349484 15.7209 1.7532 
167 1 3.48832 15.7131 1.75863 
201 2 0.00324987 17.4758 0.000855557 
202 2 1.74343 19.2076 0.00492601 
203 2 0.00442582 19.228 1.75631 
204 1 1.75147 17.4624 1.74592 
205 1 3.49205 17.4687 0.00523814 
207 1 3.4713 19.2266 1.74982 
562 2 1.74507 15.7076 3.48456 
601 2 0.00568043 17.4702 3.50517 
602 2 1.73905 19.2314 3.48934 
605 1 3.47978 17.4788 3.4978 
166 1 5.24666 15.7413 0.0114168 
171 1 6.98883 15.7278 1.76926 
206 2 5.22491 19.2126 0.0016843 
208 2 5.21263 17.4798 1.7679 
209 2 6.97529 17.47 0.00998025 
211 2 6.96638 19.2242 1.75349 
566 2 5.24449 15.7312 3.49103 
606 1 5.21024 19.2377 3.49448 
609 1 6.98088 17.4947 3.49237 
175 2 10.4792 15.7079 1.73834 
210 2 8.73134 19.2186 0.016208 
212 2 8.72875 17.4701 1.76049 
215 2 10.4822 19.2192 1.76419 
570 1 8.73807 15.7222 3.49918 
610 1 8.72172 19.2248 3.49308 
613 2 10.4783 17.4696 3.49294 
179 1 13.9755 15.7255 1.75595 
214 2 12.2393 19.222 0.0163012 
216 2 12.2494 17.4712 1.75672 
219 2 13.9943 19.2015 1.76228 
574 2 12.2282 15.723 3.50021 
614 1 12.2347 19.2192 3.49894 
617 1 13.9741 17.4758 3.51095 
178 2 15.7225 15.7433 0.007558 
183 2 17.4591 15.7344 1.74862 
220 1 15.7141 17.4782 1.74658 
222 2 19.2125 19.2175 0.00243068 
223 1 17.4658 19.2133 1.74015 
224 1 19.2127 17.4739 1.7525 
578 2 15.7127 15.7189 3.49289 
582 2 19.2251 15.7341 3.50979 
618 1 15.7387 19.2132 3.50721 
621 2 17.4631 17.4738 3.48994 
622 2 19.2124 19.2129 3.48665 
187 2 20.9705 15.7459 1.76222 
225 2 20.9666 17.4782 0.0120165 
226 2 22.7388 19.2214 0.00565301 
227 1 20.972 19.2113 1.7506 
228 1 22.725 17.471 1.74515 
586 1 22.7091 15.7399 3.50464 
625 2 20.9796 17.4807 3.50408 
626 2 22.7361 19.2106 3.49917 
191 2 24.4656 15.743 1.74533 
230 1 26.2115 19.2193 0.00515019 
231 1 24.4788 19.2076 1.75744 
232 1 26.226 17.466 1.75318 
590 1 26.2295 15.7145 3.5127 
629 1 24.4814 17.4639 3.49144 
630 1 26.2209 19.2242 3.50296 
195 2 27.956 15.7315 1.74219 
235 1 27.9599 19.2132 1.7435 
236 2 29.6979 17.4711 1.75509 
594 2 29.7073 15.7195 3.50825 
633 2 27.9548 17.4771 3.49694 
634 2 29.7007 19.2236 3.50377 
199 2 31.4611 15.7203 1.74252 
239 2 31.4427 19.2265 1.74914 
240 2 33.204 17.4728 1.74216 
598 2 33.2068 15.729 3.49871 
637 2 31.4588 17.4744 3.50339 
638 1 33.2052 19.2103 3.48892 
242 2 1.72225 22.7257 0.00207754 
244 1 1.73019 20.9718 1.73612 
247 2 3.49464 22.7038 1.75286 
642 2 1.72917 22.7265 3.48652 
645 2 3.47424 20.9771 3.49053 
248 1 5.242 20.9629 1.73159 
251 1 6.98863 22.7122 1.74002 
646 2 5.25274 22.7047 3.49124 
649 2 6.97914 20.9681 3.4985 
250 2 8.73723 22.7171 0.0176591 
252 2 8.71965 20.9787 1.76002 
255 2 10.4655 22.7226 1.7527 
650 1 8.7213 22.7255 3.49237 
653 2 10.4718 20.9596 3.49844 
254 2 12.235 22.7214 0.0121644 
256 2 12.2328 20.9684 1.75694 
257 2 13.9919 20.9594 0.0119945 
259 2 13.9805 22.7227 1.77283 
654 2 12.2202 22.7165 3.4996 
657 2 13.9898 20.9541 3.50329 
258 2 15.7336 22.7121 0.0028461 
260 2 15.743 20.9476 1.74516 
263 2 17.4798 22.7161 1.75621 
264 2 19.2179 20.9461 1.74713 
658 2 15.738 22.6999 3.51516 
661 1 17.4756 20.955 3.50414 
662 2 19.23 22.7138 3.4972 
265 2 20.9721 20.9781 0.0143627 
266 1 22.708 22.709 0.0132615 
267 2 20.9805 22.7138 1.75495 
268 2 22.7328 20.9564 1.75597 
665 1 20.98 20.9436 3.49477 
666 1 22.7099 22.7247 3.50574 
269 1 24.4799 20.9746 0.00446302 
270 1 26.2217 22.7252 0.0155871 
271 1 24.4591 22.7251 1.76412 
272 1 26.2177 20.9771 1.76349 
669 2 24.4593 20.9731 3.48639 
670 2 26.2226 22.7244 3.49189 
273 2 27.9419 20.9614 0.00428077 
274 2 29.7133 22.7162 0.00441955 
275 2 27.9697 22.7153 1.76018 
276 2 29.7077 20.9708 1.74072 
673 2 27.9667 20.9603 3.50108 
674 1 29.7154 22.7085 3.49488 
243 2 34.9214 22.7183 1.73681 
279 1 31.4598 22.7109 1.7456 
280 1 33.1853 20.9639 1.74004 
641 1 34.9362 20.9683 3.48931 
677 2 31.4619 20.9628 3.49656 
678 2 33.1856 22.7104 3.48356 
284 1 1.74777 24.4704 1.74939 
285 2 3.48404 24.4674 0.00105148 
287 2 3.50119 26.2034 1.75445 
682 1 1.73407 26.1917 3.49259 
685 1 3.50773 24.4548 3.49355 
286 1 5.2455 26.1885 0.0078721 
288 2 5.24831 24.4521 1.74467 
289 2 6.98807 24.4719 0.0132956 
291 1 6.98178 26.227 1.74941 
686 2 5.24128 26.2175 3.49345 
689 1 6.99107 24.471 3.48603 
290 2 8.7184 26.2361 0.0135943 
292 1 8.72974 24.473 1.74856 
295 2 10.4745 26.229 1.74754 
690 2 8.73499 26.2254 3.48202 
693 2 10.4694 24.47 3.49404 
294 2 12.2458 26.2218 0.00778867 
296 2 12.2167 24.4819 1.75489 
297 2 13.993 24.4763 0.0107314 
299 2 13.987 26.2223 1.76506 
694 1 12.2315 26.2119 3.50118 
697 2 13.9833 24.4728 3.52259 
298 1 15.7356 26.204 0.00423251 
300 2 15.7431 24.4652 1.75175 
303 1 17.4688 26.2145 1.73698 
304 2 19.2152 24.4818 1.74117 
698 2 15.7158 26.2148 3.5005 
701 1 17.4635 24.4709 3.5137 
702 2 19.2102 26.2104 3.50669 
306 1 22.7083 26.2302 0.00700854 
307 2 20.9594 26.2229 1.75319 
308 2 22.7138 24.466 1.75376 
705 1 20.9735 24.4806 3.49298 
706 2 22.7334 26.2016 3.49648 
309 2 24.4446 24.4551 0.0126955 
310 2 26.2024 26.2028 0.00478969 
311 2 24.4771 26.2064 1.75017 
312 2 26.2212 24.4621 1.76426 
709 1 24.489 24.4761 3.50171 
710 1 26.2173 26.2274 3.50311 
313 2 27.9656 24.4717 0.00324802 
314 2 29.7157 26.2269 0.00121436 
315 1 27.9638 26.2179 1.74731 
316 2 29.7192 24.4657 1.75973 
713 2 27.9684 24.4758 3.49767 
714 1 29.7187 26.2245 3.49948 
283 2 34.9327 26.1922 1.73094 
319 2 31.4458 26.2114 1.73858 
320 1 33.1742 24.4621 1.72958 
681 1 34.9131 24.4695 3.48206 
717 2 31.4564 24.4659 3.49956 
718 2 33.1888 26.2194 3.48265 
324 2 1.73805 27.9355 1.74264 
327 2 3.49425 29.6969 1.75547 
722 2 1.75162 29.6942 3.49746 
725 2 3.48233 27.9572 3.49206 
326 1 5.22787 29.7064 0.00402165 
328 2 5.24086 27.9612 1.7394 
331 2 6.98124 29.6986 1.74292 
726 1 5.22732 29.7091 3.50805 
729 2 6.98472 27.9643 3.49016 
332 1 8.72145 27.976 1.74255 
333 2 10.4956 27.9815 0.0132989 
335 2 10.4802 29.7126 1.75242 
730 1 8.73038 29.7111 3.49821 
733 2 10.5009 27.9758 3.47791 
334 2 12.2361 29.7212 0.0103926 
336 1 12.2521 27.967 1.74956 
339 2 13.979 29.7102 1.74365 
734 1 12.2474 29.7172 3.49849 
737 1 13.9758 27.9666 3.51066 
338 1 15.7222 29.7091 0.0134772 
340 2 15.7225 27.9574 1.73464 
342 1 19.2311 29.7042 0.00783144 
343 2 17.4868 29.6933 1.75886 
344 1 19.2167 27.9565 1.75176 
738 2 15.7251 29.7096 3.49551 
741 2 17.4651 27.9508 3.49258 
742 2 19.2206 29.7054 3.50152 
345 2 20.9602 27.9729 0.00731391 
346 2 22.6964 29.7149 0.00552705 
347 1 20.9664 29.719 1.75008 
348 2 22.7033 27.967 1.76327 
745 2 20.9625 27.9572 3.51076 
746 2 22.7063 29.7168 3.5041 
349 2 24.4591 27.9575 0.00526558 
351 2 24.4607 29.7134 1.75195 
352 2 26.2228 27.967 1.74897 
749 2 24.4681 27.9498 3.50473 
750 2 26.2181 29.717 3.49232 
353 2 27.9649 27.967 0.00315898 
355 1 27.9594 29.7234 1.74922 
356 2 29.707 27.9687 1.7485 
753 2 27.9651 27.9628 3.4894 
754 2 29.7152 29.7196 3.4832 
323 2 34.94 29.7069 1.74676 
357 1 31.4506 27.968 0.0118603 
359 2 31.4632 29.7147 1.74059 
360 1 33.1959 27.959 1.73411 
721 2 34.9369 27.9429 3.48829 
757 2 31.4664 27.9713 3.49127 
758 1 33.209 29.7043 3.50461 
363 1 0.00661334 33.1804 1.73999 
364 2 1.73881 31.4481 1.74657 
365 2 3.49697 31.4507 0.0123296 
367 2 3.47965 33.2114 1.74448 
405 2 3.49183 34.9405 3.49967 
762 2 1.73333 33.1976 3.49279 
765 1 3.48762 31.4547 3.48614 
366 1 5.24246 33.2125 0.0109015 
368 2 5.23773 31.4548 1.75057 
369 2 6.98581 31.451 0.00392438 
371 2 7.00215 33.2189 1.7473 
766 2 5.23737 33.1973 3.48091 
769 2 6.976 31.4432 3.5145 
13 2 10.4844 34.9364 0.00743848 
370 2 8.74111 33.1841 0.0129078 
372 2 8.73208 31.443 1.7611 
373 1 10.4734 31.4536 0.00735615 
375 1 10.471 33.1831 1.76188 
770 2 8.73529 33.1877 3.49686 
773 2 10.4811 31.4434 3.50044 
16 2 12.224 34.9342 1.7531 
17 2 13.9744 34.9267 0.000551154 
374 1 12.2317 33.1967 0.0114155 
376 2 12.2299 31.4567 1.75419 
379 1 13.987 33.1846 1.76236 
774 2 12.2345 33.1931 3.49841 
777 2 13.9883 31.4479 3.50381 
20 2 15.7272 34.9419 1.76277 
380 2 15.7295 31.4526 1.7615 
381 2 17.4762 31.4337 0.0121683 
383 2 17.4644 33.1997 1.75287 
384 2 19.217 31.4566 1.7383 
778 2 15.7227 33.2081 3.51806 
781 1 17.4749 31.4599 3.50876 
782 2 19.2092 33.2145 3.4987 
25 2 20.9582 34.9369 0.000888716 
385 1 20.9664 31.4622 0.00100611 
387 2 20.9584 33.2119 1.74354 
388 2 22.708 31.4728 1.74566 
785 2 20.9539 31.4702 3.48825 
786 2 22.7241 33.2259 3.48999 
391 2 24.4683 33.2222 1.74651 
392 2 26.2152 31.4734 1.73839 
789 2 24.4671 31.4728 3.49588 
790 1 26.2157 33.1968 3.50572 
36 1 29.7184 34.9449 1.74779 
395 2 27.9731 33.2133 1.73849 
396 2 29.7176 31.4629 1.73677 
793 2 27.9755 31.4706 3.49227 
794 1 29.7226 33.2 3.48949 
1 1 34.9389 34.9345 0.00619898 
37 2 31.4623 34.941 0.000885378 
40 2 33.1941 34.9289 1.73774 
398 2 33.1988 33.1734 0.00164028 
399 1 31.4602 33.1781 1.73687 
400 1 33.2101 31.448 1.75388 
437 1 31.4505 34.9446 3.4798 
761 2 34.9431 31.4541 3.50216 
797 1 31.4621 31.4486 3.48775 
798 1 33.2082 33.2062 3.4889 
404 2 1.74028 0.0141065 5.25649 
407 2 3.5029 1.74726 5.22606 
444 1 1.74359 3.49048 5.22371 
802 2 1.74735 1.7463 6.98991 
805 1 3.49899 0.0104279 6.9854 
845 2 3.48105 3.49186 6.99112 
408 1 5.24002 0.00102853 5.22447 
411 1 6.98346 1.73945 5.25354 
448 2 5.23568 3.48559 5.24787 
806 1 5.23361 1.74377 6.98127 
809 1 6.98457 0.0039911 6.99324 
849 2 6.98361 3.48454 6.99853 
415 2 10.4885 1.75155 5.25362 
452 2 8.7333 3.4861 5.23784 
810 1 8.73523 1.75214 6.99153 
853 2 10.4927 3.49258 6.99627 
419 1 13.9617 1.74064 5.26139 
456 2 12.2419 3.48456 5.25301 
814 1 12.2248 1.74401 7.00749 
857 1 13.9883 3.46861 7.00188 
420 1 15.7157 0.0154354 5.26445 
423 1 17.476 1.75299 5.25074 
424 2 19.2107 0.00651375 5.24115 
460 2 15.7123 3.4733 5.25194 
464 2 19.2348 3.49217 5.24317 
818 2 15.7296 1.75022 6.99346 
821 2 17.4769 0.00800201 7.00545 
822 2 19.2214 1.74924 6.99524 
861 2 17.4656 3.49798 7.00719 
427 1 20.9752 1.73482 5.25353 
428 2 22.7273 0.0165551 5.23769 
468 1 22.698 3.49183 5.22982 
826 1 22.7239 1.74321 6.99558 
865 2 20.9802 3.4898 6.98128 
431 2 24.4602 1.75374 5.22941 
432 1 26.2209 0.0083753 5.23724 
472 2 26.2024 3.4983 5.23638 
829 2 24.4643 1.21078e-05 6.98794 
830 2 26.2127 1.74746 6.98217 
869 2 24.44 3.5015 6.99175 
435 1 27.9581 1.74884 5.23759 
436 2 29.7183 0.00363151 5.22734 
476 2 29.709 3.49029 5.23327 
833 2 27.9675 0.0120044 6.97928 
834 1 29.7171 1.75606 6.98191 
873 2 27.9673 3.4993 6.97845 
403 2 34.9327 1.75069 5.23795 
439 1 31.4597 1.75421 5.24555 
440 1 33.1869 0.00834951 5.22187 
480 2 33.2035 3.48758 5.24464 
801 1 34.9265 0.00839292 6.9853 
837 2 31.4599 0.00229113 6.96916 
838 2 33.1906 1.74803 7.00065 
841 1 34.941 3.49197 6.98429 
877 2 31.4568 3.51502 6.9876 
443 2 0.000891143 5.23261 5.24444 
447 2 3.49316 5.23217 5.22824 
484 2 1.75818 6.9769 5.24147 
842 2 1.74321 5.2358 6.97965 
881 2 0.00311927 6.97639 6.98605 
885 1 3.49054 6.97058 6.98253 
451 2 6.99462 5.22816 5.253 
488 1 5.24404 6.9758 5.24135 
846 2 5.23879 5.24399 7.00249 
889 1 6.99104 6.96506 6.98774 
455 1 10.4821 5.22815 5.24138 
492 2 8.73055 6.98471 5.24538 
850 2 8.7413 5.2246 7.00762 
893 1 10.4737 6.96914 6.98989 
459 1 13.9868 5.23374 5.25896 
496 2 12.2407 6.97687 5.25778 
854 2 12.2377 5.22918 6.99418 
897 1 13.9791 6.98523 6.99667 
463 2 17.4787 5.22454 5.26113 
500 2 15.7125 6.98893 5.25216 
504 2 19.2156 6.98179 5.24175 
858 1 15.7126 5.23016 6.99971 
862 1 19.2346 5.22421 7.00276 
901 1 17.4887 6.98201 6.98786 
467 1 20.9577 5.25114 5.23996 
508 2 22.722 6.97437 5.24133 
866 2 22.6947 5.23829 6.98668 
905 2 20.9541 6.98983 6.9877 
471 2 24.4548 5.25091 5.23428 
512 1 26.2125 6.999 5.22657 
870 2 26.2193 5.26234 6.97774 
909 2 24.4694 7.00253 6.98546 
475 1 27.9561 5.23394 5.23335 
516 2 29.6907 6.98222 5.23465 
874 1 29.7067 5.25667 6.97857 
913 2 27.9613 6.9973 6.97671 
479 2 31.4458 5.23828 5.24696 
520 2 33.1959 7.00232 5.23829 
878 2 33.192 5.2487 6.99568 
917 1 31.4515 6.99863 6.97702 
483 2 0.00840732 8.73742 5.2378 
487 2 3.50876 8.72189 5.25842 
524 2 1.73752 10.4825 5.24337 
882 1 1.73801 8.72076 6.98994 
925 1 3.48997 10.4748 6.98161 
491 1 6.98208 8.73906 5.25182 
528 2 5.25388 10.4671 5.25638 
886 1 5.24883 8.71142 6.99618 
929 1 6.97722 10.487 7.00148 
495 2 10.4785 8.72944 5.25511 
532 1 8.72403 10.4824 5.2455 
890 2 8.7219 8.74205 6.98464 
933 1 10.4838 10.4803 7.00177 
499 1 13.9732 8.74096 5.25366 
536 2 12.2225 10.4833 5.24363 
894 2 12.2371 8.73118 6.99735 
937 1 13.9788 10.4943 6.99112 
503 2 17.4695 8.72879 5.24901 
540 1 15.7321 10.4709 5.2478 
544 2 19.2115 10.4714 5.23111 
898 1 15.7091 8.73344 6.983 
902 1 19.235 8.7454 6.98509 
941 2 17.4667 10.4624 6.9857 
507 2 20.9658 8.72788 5.22904 
548 2 22.7118 10.485 5.2188 
906 2 22.7142 8.7291 6.98881 
945 2 20.9687 10.4792 6.96581 
511 1 24.4451 8.73299 5.22379 
552 2 26.2145 10.4774 5.22858 
910 1 26.2156 8.73783 6.96117 
949 2 24.4618 10.4685 6.98624 
515 1 27.9728 8.73431 5.23434 
556 2 29.7103 10.4927 5.22261 
914 2 29.7022 8.7268 6.99362 
953 2 27.9761 10.4722 6.96369 
519 2 31.437 8.73889 5.22957 
560 1 33.2029 10.4636 5.2402 
918 2 33.2005 8.74257 6.99149 
921 2 34.9411 10.4817 6.98483 
957 1 31.4441 10.4741 6.9811 
527 2 3.48699 12.2224 5.23879 
564 1 1.74652 13.9617 5.23513 
922 2 1.74391 12.2253 6.97595 
965 2 3.48208 13.9691 6.99416 
531 2 6.9814 12.219 5.24877 
568 2 5.22874 13.9829 5.25121 
926 1 5.23395 12.235 6.9961 
969 1 6.97828 13.9879 6.9891 
535 2 10.4744 12.2138 5.23036 
572 2 8.73276 13.9672 5.23581 
930 1 8.74089 12.225 6.99001 
973 2 10.4647 13.9667 6.97308 
539 2 13.9776 12.2258 5.2523 
576 1 12.213 13.9806 5.24912 
934 2 12.213 12.224 6.9912 
977 2 13.9713 13.963 6.97989 
543 2 17.4787 12.2421 5.24334 
580 1 15.7288 13.9782 5.25794 
584 2 19.2243 13.9951 5.22965 
938 2 15.7273 12.2137 6.98587 
942 2 19.2255 12.2273 6.98426 
981 2 17.4784 13.9899 6.98219 
547 1 20.957 12.2201 5.22432 
588 1 22.7028 13.9684 5.24047 
946 2 22.7145 12.222 6.96587 
985 2 20.9649 13.992 6.96574 
551 2 24.4565 12.2199 5.23961 
592 1 26.2051 13.9603 5.23384 
950 2 26.2124 12.2169 6.97855 
989 2 24.4694 13.9726 6.98704 
555 1 27.9645 12.2388 5.22902 
596 1 29.7246 13.9589 5.23756 
954 2 29.7189 12.2212 6.97492 
993 2 27.9589 13.9568 6.97241 
523 1 34.9428 12.2153 5.23742 
559 2 31.4645 12.2136 5.23431 
600 2 33.2151 13.9691 5.23125 
958 1 33.1976 12.219 6.97779 
961 1 34.9444 13.9728 6.97784 
997 2 31.4735 13.9602 6.98616 
563 1 0.0060302 15.7151 5.2343 
567 2 3.47734 15.7247 5.22689 
604 2 1.73415 17.4731 5.23234 
607 2 3.48636 19.2384 5.22909 
962 2 1.73431 15.7111 6.98265 
1001 1 0.00183636 17.4734 6.99645 
1002 2 1.72957 19.221 6.99262 
1005 2 3.47655 17.4663 6.96422 
571 2 6.97912 15.7333 5.23265 
608 1 5.23315 17.4592 5.228 
611 1 6.96747 19.2173 5.23081 
966 1 5.21945 15.7316 6.98595 
1006 2 5.229 19.2089 6.96089 
1009 2 6.97005 17.4581 6.97853 
575 2 10.4737 15.7325 5.24108 
612 2 8.71634 17.4922 5.23481 
615 1 10.4822 19.2095 5.22784 
970 2 8.71168 15.7158 6.98266 
1010 2 8.72166 19.2213 6.98498 
1013 2 10.4668 17.4786 6.98779 
579 2 13.983 15.7106 5.2447 
616 2 12.2289 17.4695 5.24089 
619 2 13.9705 19.2281 5.23796 
974 2 12.2256 15.7244 6.98917 
1014 2 12.2218 19.2217 6.97986 
1017 2 13.9902 17.4696 6.98044 
583 1 17.4626 15.7293 5.23362 
620 2 15.7346 17.4645 5.23594 
623 2 17.4752 19.215 5.24293 
624 1 19.2098 17.476 5.25124 
978 2 15.7384 15.7235 6.99885 
982 1 19.2196 15.723 6.97361 
1018 2 15.7258 19.2168 6.99802 
1021 1 17.4687 17.4663 6.99118 
1022 2 19.2317 19.1973 6.9999 
587 1 20.9772 15.7436 5.23427 
627 2 20.9813 19.2045 5.24185 
628 1 22.7317 17.481 5.25344 
986 2 22.7054 15.7387 6.97087 
1025 1 20.9678 17.4672 6.99163 
1026 1 22.7238 19.2193 6.98926 
591 2 24.4548 15.7188 5.23779 
631 2 24.4736 19.2155 5.23423 
632 2 26.2176 17.456 5.22888 
990 2 26.2164 15.7075 6.98347 
1029 1 24.4844 17.4671 6.98107 
1030 2 26.2111 19.2178 6.97351 
595 2 27.9762 15.705 5.24237 
635 1 27.9587 19.2106 5.24832 
636 1 29.7112 17.4779 5.2455 
994 2 29.724 15.7143 6.98076 
1033 2 27.9565 17.4673 6.97519 
1034 2 29.7163 19.2261 6.99013 
599 2 31.4627 15.7249 5.25271 
603 1 34.9414 19.2137 5.22797 
639 2 31.4633 19.2113 5.24905 
640 1 33.2097 17.4724 5.25584 
998 1 33.2126 15.7168 6.97802 
1037 2 31.4689 17.4714 6.98748 
1038 2 33.2109 19.218 6.99346 
644 1 1.72723 20.9776 5.25533 
647 1 3.4775 22.7251 5.2289 
1042 2 1.72213 22.7225 6.98368 
1045 2 3.48815 20.9832 6.98134 
648 1 5.23506 20.9846 5.24263 
651 1 6.99059 22.7155 5.23039 
1046 2 5.24223 22.7363 6.97621 
1049 2 6.97832 20.9747 6.98574 
652 1 8.73194 20.9625 5.23166 
655 2 10.4683 22.7057 5.23997 
1050 2 8.71898 22.7133 6.97789 
1053 2 10.4735 20.9566 6.98761 
656 2 12.2138 20.9665 5.24744 
659 1 13.9676 22.7036 5.24664 
1054 2 12.2289 22.7183 7.00023 
1057 2 13.9745 20.9755 6.9927 
660 2 15.7341 20.9679 5.24947 
663 1 17.4935 22.6969 5.24963 
664 2 19.2367 20.9508 5.23772 
1058 2 15.7236 22.7154 6.99045 
1061 2 17.4879 20.9549 6.99382 
1062 2 19.2335 22.7234 6.98965 
667 2 20.9677 22.7283 5.23052 
668 1 22.7176 20.9736 5.23359 
1065 2 20.9783 20.962 6.9791 
1066 2 22.7177 22.713 6.978 
671 2 24.4805 22.7311 5.22395 
672 2 26.2191 20.9774 5.23774 
1069 2 24.4651 20.9596 6.97695 
1070 2 26.2345 22.7155 6.98481 
675 1 27.9727 22.7149 5.23977 
676 2 29.7069 20.9624 5.25292 
1073 2 27.9774 20.9755 6.98468 
1074 1 29.7121 22.7179 6.99073 
643 1 34.9296 22.7237 5.21956 
679 2 31.4476 22.7174 5.24724 
680 2 33.2102 20.9626 5.2283 
1041 2 34.9302 20.9645 6.97652 
1077 1 31.4579 20.9626 6.98446 
1078 1 33.2015 22.7115 6.98289 
684 2 1.72575 24.4521 5.2112 
687 2 3.50054 26.202 5.22805 
1082 2 1.75071 26.2008 6.97536 
1085 2 3.48889 24.4673 6.96484 
688 2 5.25398 24.4587 5.22797 
691 1 6.99782 26.2356 5.22934 
1086 1 5.24651 26.2026 6.97869 
1089 2 6.99065 24.4796 6.97856 
692 2 8.72313 24.4618 5.22537 
695 2 10.4802 26.2188 5.2418 
1090 2 8.71751 26.2285 6.99017 
1093 2 10.4804 24.4683 6.99036 
696 2 12.2342 24.4629 5.24712 
699 1 13.959 26.2236 5.25271 
1094 2 12.2235 26.2128 6.99234 
1097 1 13.9713 24.4629 6.9974 
700 2 15.7193 24.4552 5.26042 
703 1 17.4639 26.213 5.24142 
704 2 19.2243 24.4786 5.24059 
1098 2 15.7316 26.2062 6.99328 
1101 2 17.4782 24.4666 6.976 
1102 1 19.2195 26.2025 6.98223 
707 1 20.9846 26.2038 5.24417 
708 2 22.7275 24.4705 5.2442 
1105 1 20.9763 24.4694 7.00042 
1106 2 22.7016 26.2278 6.99787 
711 1 24.4684 26.2188 5.24545 
712 1 26.2372 24.4681 5.23812 
1109 2 24.4601 24.4697 6.97171 
1110 2 26.2205 26.2146 6.96851 
715 2 27.9642 26.2152 5.23253 
716 2 29.7174 24.4642 5.23404 
1113 2 27.9797 24.4563 6.99172 
1114 2 29.7135 26.2047 6.97583 
683 2 34.923 26.1913 5.2352 
719 1 31.468 26.2231 5.23963 
720 1 33.1778 24.4505 5.24123 
1081 2 34.9188 24.4492 6.98525 
1117 1 31.4502 24.4662 6.98516 
1118 2 33.1942 26.1986 6.99107 
723 2 0.00770021 29.7036 5.24547 
724 2 1.73376 27.945 5.23665 
727 1 3.48405 29.7076 5.24337 
1122 2 1.74071 29.7073 6.98888 
1125 2 3.48891 27.9486 6.98125 
728 2 5.23331 27.9588 5.24283 
731 2 6.98739 29.7004 5.24938 
1126 2 5.241 29.699 6.97758 
1129 2 6.98672 27.9561 7.00333 
732 2 8.74147 27.9821 5.2345 
735 2 10.4743 29.7199 5.24226 
1130 1 8.73105 29.7046 7.01238 
1133 2 10.4734 27.9666 7.00831 
736 2 12.2288 27.9747 5.23644 
739 2 13.9882 29.7144 5.24784 
1134 2 12.2149 29.7153 6.98077 
1137 2 13.9762 27.9537 6.99001 
740 2 15.7298 27.9648 5.25435 
743 1 17.4666 29.7095 5.23539 
744 1 19.2207 27.9482 5.24484 
1138 2 15.7488 29.7043 6.99674 
1141 2 17.484 27.951 6.99928 
1142 1 19.1981 29.6985 6.9788 
747 1 20.9653 29.724 5.244 
748 1 22.7055 27.9625 5.24068 
1145 1 20.9613 27.9724 6.98538 
1146 1 22.7251 29.7069 6.97738 
751 2 24.4564 29.6966 5.23633 
752 1 26.22 27.9699 5.23783 
1149 2 24.4562 27.9634 6.97512 
1150 2 26.204 29.711 6.99401 
755 2 27.9671 29.7104 5.24392 
756 2 29.7199 27.9698 5.24949 
1153 2 27.9663 27.96 6.98999 
1154 2 29.7159 29.723 7.00621 
759 2 31.4587 29.7078 5.24585 
760 1 33.2091 27.9628 5.24421 
1121 2 34.9416 27.9577 6.99579 
1157 2 31.4686 27.9528 7.00186 
1158 2 33.2058 29.6999 6.98846 
764 2 1.74545 31.4528 5.24727 
767 2 3.48993 33.1985 5.23587 
1162 2 1.73248 33.2117 6.99486 
1165 2 3.49469 31.4615 6.97707 
768 2 5.23639 31.4574 5.24698 
771 2 6.98694 33.2054 5.24851 
1166 2 5.24422 33.2134 6.99439 
1169 1 6.98416 31.4469 6.98969 
412 2 8.7271 34.9387 5.25891 
772 1 8.73053 31.4486 5.25178 
775 2 10.4946 33.1899 5.24913 
813 1 10.4926 34.9377 6.98454 
1170 2 8.73735 33.1999 6.99963 
1173 2 10.4661 31.4607 6.99731 
416 2 12.239 34.9339 5.25501 
776 1 12.2264 31.4561 5.245 
779 1 13.9759 33.191 5.24805 
817 2 13.9605 34.9409 6.9976 
1174 1 12.2345 33.1853 6.99678 
1177 2 13.9769 31.4572 6.98628 
780 1 15.7278 31.4523 5.24849 
783 2 17.4485 33.2002 5.26751 
784 2 19.2002 31.4458 5.25372 
1178 2 15.7166 33.2001 7.00633 
1181 2 17.4795 31.4482 7.00195 
1182 1 19.2118 33.1999 6.98477 
787 2 20.9611 33.2014 5.24021 
788 2 22.7145 31.4499 5.24388 
825 2 20.9731 34.9396 6.98094 
1185 2 20.9519 31.4379 6.99065 
1186 2 22.7027 33.1975 6.99607 
791 2 24.4734 33.2091 5.23975 
792 2 26.2263 31.4566 5.24388 
1189 2 24.462 31.4581 6.99059 
1190 2 26.2304 33.2168 6.982 
795 2 27.9811 33.2146 5.24206 
796 1 29.7122 31.458 5.23342 
1193 2 27.9764 31.4646 6.99487 
1194 1 29.713 33.1953 6.99269 
763 2 34.9286 33.2074 5.24163 
799 1 31.4584 33.1915 5.23446 
800 2 33.1947 31.4514 5.22867 
1161 1 34.9318 31.4479 6.9941 
1197 2 31.4541 31.4556 6.98194 
1198 2 33.1937 33.2101 6.97446 
803 1 0.0040763 1.74358 8.72335 
804 1 1.74005 7.07717e-05 8.73141 
807 2 3.49946 1.74827 8.73476 
844 2 1.73779 3.48875 8.73887 
1201 2 0.00721256 0.0204699 10.463 
1202 1 1.74099 1.76 10.4682 
1205 2 3.48359 0.0141494 10.4683 
1241 1 0.000597152 3.49447 10.4767 
1245 1 3.50357 3.48154 10.4939 
808 1 5.23637 0.00542533 8.72819 
811 1 6.97219 1.73945 8.72697 
848 1 5.24616 3.49724 8.73599 
1206 1 5.24125 1.741 10.4823 
1209 2 6.9842 0.0104202 10.4776 
1249 1 6.97823 3.47561 10.482 
812 1 8.74673 0.00504747 8.72696 
815 2 10.4743 1.74294 8.73512 
852 2 8.72929 3.48722 8.75121 
1210 2 8.72184 1.73951 10.4793 
1253 1 10.4864 3.46984 10.478 
819 2 13.9838 1.73369 8.73113 
856 1 12.231 3.48788 8.72934 
1214 2 12.2324 1.74189 10.4788 
1257 2 13.9701 3.50106 10.4773 
823 1 17.4806 1.75668 8.76045 
860 2 15.7159 3.49051 8.76034 
864 2 19.2381 3.48515 8.7554 
1218 2 15.7369 1.73153 10.4927 
1222 1 19.2301 1.7432 10.5022 
1261 2 17.4759 3.48705 10.5019 
827 2 20.9659 1.73581 8.73155 
868 1 22.7001 3.49612 8.73268 
1226 2 22.7148 1.75773 10.4715 
1265 2 20.9839 3.492 10.4987 
831 2 24.4511 1.74228 8.73455 
832 1 26.2195 0.0159941 8.73874 
872 2 26.1887 3.50216 8.72663 
1229 2 24.462 0.0118764 10.4851 
1230 1 26.1931 1.76436 10.4725 
1269 1 24.4488 3.49986 10.4641 
835 2 27.9603 1.75093 8.73203 
836 2 29.7077 0.0040802 8.72386 
876 2 29.7165 3.51024 8.72833 
1233 2 27.9482 0.0272278 10.4807 
1234 1 29.6983 1.75625 10.4782 
1273 2 27.9486 3.5024 10.4769 
839 2 31.4546 1.76786 8.73597 
840 1 33.1854 0.00921676 8.73767 
880 1 33.1937 3.51316 8.73681 
1237 2 31.4527 0.0338296 10.4809 
1238 1 33.2058 1.76676 10.4635 
1277 1 31.4435 3.48564 10.481 
843 1 0.00868123 5.2452 8.73167 
847 2 3.49848 5.23184 8.74438 
884 2 1.75944 6.97708 8.73155 
1242 2 1.7484 5.22034 10.4983 
1285 2 3.50446 6.97474 10.4762 
851 1 6.97511 5.24246 8.75535 
888 1 5.24148 6.98034 8.73694 
1246 1 5.24181 5.2427 10.4866 
1289 1 6.98564 6.99145 10.5001 
855 1 10.4921 5.23574 8.74487 
892 2 8.72899 6.96476 8.74203 
1250 1 8.74043 5.22831 10.4897 