ITEM: TIMESTEP
1000
ITEM: NUMBER OF ATOMS
4001
ITEM: BOX BOUNDS pp pp pp
0.0000000000000000e+00 3.4945000000000000e+01
0.0000000000000000e+00 3.4945000000000000e+01
0.0000000000000000e+00 3.4945000000000000e+01
ITEM: ATOMS id type x y z 
2 1 1.72681 1.75209 0.00649516 
4 2 1.72889 0.00875576 1.73979 
7 1 3.491 1.7369 1.74157 
41 1 0.00905795 3.50769 0.0024488 
44 2 1.75016 3.49112 1.74437 
45 2 3.48584 3.49225 0.0129388 
402 2 1.75188 1.75207 3.47698 
445 2 3.50239 3.4927 3.47991 
6 2 5.23304 1.74381 0.00524179 
8 2 5.25113 0.0104325 1.75445 
11 1 6.99554 1.74872 1.74305 
48 2 5.23956 3.48358 1.74365 
406 1 5.24153 1.74687 3.49212 
409 2 6.99424 0.0211091 3.50173 
449 1 6.97172 3.48443 3.49782 
10 2 8.75146 1.7513 0.00621774 
12 1 8.74523 0.00876302 1.74592 
15 2 10.4887 1.74007 1.74442 
52 2 8.73916 3.48839 1.75785 
53 1 10.4877 3.49402 0.00624371 
410 2 8.72685 1.75197 3.50412 
413 2 10.4739 0.00716112 3.50394 
453 1 10.484 3.47983 3.49826 
19 1 13.9729 1.73911 1.7475 
56 2 12.2315 3.47675 1.75659 
57 2 13.9638 3.47943 0.015644 
414 1 12.2278 1.74582 3.50055 
417 2 13.9771 0.0120033 3.50477 
457 1 13.9882 3.47157 3.49763 
18 2 15.7164 1.75013 0.0099445 
23 2 17.4708 1.7416 1.76122 
24 1 19.207 0.00639265 1.75706 
60 2 15.7129 3.49134 1.75363 
64 2 19.212 3.47028 1.74325 
418 1 15.7192 1.7329 3.50875 
421 2 17.4727 0.00398652 3.51471 
422 1 19.2157 1.74349 3.50458 
461 2 17.465 3.4847 3.5045 
27 1 20.9546 1.73288 1.72901 
28 1 22.7066 0.00292557 1.75069 
68 2 22.7176 3.46448 1.73891 
425 1 20.961 0.0157279 3.49785 
426 1 22.7103 1.74524 3.49369 
465 2 20.9577 3.4722 3.49843 
29 2 24.4658 0.011018 0.00209544 
31 1 24.4701 1.74025 1.7424 
32 1 26.2208 0.00286924 1.75663 
72 1 26.2093 3.50393 1.74671 
429 1 24.4766 0.0168493 3.48883 
430 1 26.2194 1.76487 3.49312 
469 2 24.4546 3.48287 3.48632 
34 2 29.6942 1.75219 0.00149143 
35 1 27.9577 1.7446 1.74306 
73 1 27.9587 3.47876 0.000717582 
76 1 29.709 3.49235 1.75614 
433 1 27.9652 0.00670567 3.49162 
434 1 29.7222 1.75654 3.48466 
473 2 27.9679 3.48702 3.48312 
36 1 29.7197 0.000595567 1.74795 
3 1 34.9339 1.75419 1.74506 
39 1 31.4537 1.76077 1.71827 
80 2 33.1884 3.50208 1.72854 
401 2 34.9326 0.00247814 3.48491 
438 2 33.174 1.74229 3.47872 
441 2 34.9307 3.4954 3.4871 
477 1 31.4576 3.49795 3.49134 
437 1 31.4516 0.000292072 3.47995 
43 2 0.0111172 5.24408 1.7328 
47 1 3.50701 5.25449 1.74836 
84 2 1.75896 6.99267 1.74141 
442 2 1.75031 5.23911 3.48476 
481 2 0.00769242 6.99839 3.48878 
485 2 3.50527 6.98523 3.50245 
51 2 6.98226 5.22188 1.75244 
88 2 5.26076 6.97974 1.74824 
446 2 5.24502 5.23683 3.48744 
489 2 6.99168 6.98052 3.51768 
50 2 8.73143 5.23716 0.011057 
55 2 10.4959 5.2355 1.76517 
92 1 8.7334 6.97226 1.76477 
450 2 8.7383 5.22411 3.4979 
493 2 10.4925 6.97913 3.50886 
54 2 12.2382 5.22352 0.00454421 
59 1 13.9762 5.23348 1.744 
96 2 12.2432 6.99436 1.73626 
97 2 13.9924 6.97485 0.0109822 
454 2 12.2491 5.21891 3.50621 
497 1 13.9799 6.99149 3.48597 
58 1 15.7101 5.23888 0.00760085 
63 2 17.4553 5.23522 1.74469 
100 1 15.7249 6.97551 1.76329 
104 2 19.1918 6.97954 1.73067 
458 2 15.7142 5.2283 3.50152 
462 1 19.2161 5.23589 3.48606 
501 2 17.4673 6.97807 3.49564 
67 2 20.9538 5.22226 1.7513 
108 2 22.7105 6.98516 1.73823 
466 2 22.6887 5.22671 3.4921 
505 2 20.9456 6.99223 3.48165 
71 2 24.4565 5.23128 1.74397 
112 2 26.2251 6.97265 1.74352 
470 2 26.2144 5.23315 3.50091 
509 2 24.4703 6.99128 3.47803 
74 1 29.7084 5.2348 0.00514068 
75 2 27.9714 5.23846 1.74735 
116 1 29.6997 6.9964 1.75224 
474 2 29.7043 5.2355 3.49298 
513 1 27.9545 6.9867 3.49673 
79 2 31.4416 5.24576 1.74888 
120 2 33.1895 7.00086 1.73052 
478 2 33.1969 5.25163 3.49044 
517 2 31.4399 6.98933 3.49442 
83 2 0.00101359 8.73612 1.73615 
87 2 3.52031 8.72031 1.74407 
124 2 1.74459 10.4811 1.73878 
482 2 1.77052 8.74601 3.50067 
521 1 0.00920128 10.4667 3.49111 
525 2 3.5057 10.4851 3.50135 
91 2 6.98777 8.71817 1.75741 
128 2 5.24669 10.4792 1.74473 
129 2 6.99981 10.4823 0.0111649 
486 1 5.2518 8.71631 3.50516 
529 1 6.97397 10.4682 3.47965 
95 2 10.4889 8.73179 1.73452 
132 2 8.75391 10.4628 1.74786 
490 2 8.7214 8.73421 3.50234 
533 1 10.481 10.4596 3.4928 
99 1 13.984 8.73856 1.73423 
136 1 12.2213 10.4791 1.75032 
137 2 13.9572 10.4822 0.004376 
494 2 12.2406 8.73242 3.49086 
537 2 13.9641 10.4745 3.50758 
103 2 17.4497 8.72827 1.73743 
140 2 15.7059 10.4825 1.75444 
144 2 19.2271 10.4757 1.73653 
498 2 15.7209 8.73343 3.50469 
502 1 19.2054 8.73367 3.472 
541 2 17.4793 10.4918 3.4896 
107 2 20.955 8.74122 1.72895 
148 1 22.7021 10.4706 1.73945 
506 2 22.6985 8.7365 3.48297 
545 1 20.9599 10.4631 3.49869 
111 2 24.4663 8.72768 1.7307 
152 2 26.199 10.4767 1.73562 
510 2 26.2231 8.73598 3.50199 
549 2 24.4492 10.4719 3.47205 
114 1 29.7006 8.72922 0.00693348 
115 1 27.9474 8.73524 1.72499 
156 2 29.7145 10.4636 1.73268 
514 2 29.6875 8.73805 3.4662 
553 1 27.9511 10.4881 3.49214 
119 1 31.4638 8.73827 1.73453 
160 1 33.2155 10.4791 1.74026 
518 2 33.2027 8.73899 3.48433 
557 2 31.4679 10.4709 3.48389 
123 2 0.00298862 12.2163 1.74466 
127 2 3.50097 12.2408 1.73575 
161 2 0.00475725 13.9593 0.0101058 
164 2 1.73904 13.9778 1.7512 
522 1 1.73393 12.2264 3.49615 
565 2 3.49204 13.9683 3.49651 
131 2 6.99069 12.2398 1.75915 
168 2 5.24642 13.9804 1.74782 
169 2 6.99719 13.9952 0.0137352 
526 1 5.24589 12.2302 3.50391 
569 1 6.97376 13.9812 3.49919 
135 1 10.4712 12.2202 1.75248 
172 2 8.74292 13.9817 1.76279 
530 2 8.72466 12.2258 3.50225 
573 1 10.4853 13.9823 3.50014 
139 2 13.9668 12.2304 1.75477 
176 2 12.2294 13.9648 1.75144 
177 2 13.9765 13.9898 0.0152239 
534 2 12.2128 12.2314 3.49572 
577 1 13.9769 13.9685 3.50692 
143 2 17.4663 12.243 1.74266 
180 1 15.725 13.9787 1.74473 
184 2 19.2003 13.9949 1.74467 
538 2 15.7263 12.2389 3.50625 
542 2 19.2327 12.2276 3.48966 
581 1 17.4709 13.9791 3.50211 
146 2 22.7171 12.2328 0.0170091 
147 2 20.9685 12.2161 1.76313 
185 2 20.9511 13.9685 0.0166798 
188 2 22.7072 13.9903 1.76521 
546 1 22.7055 12.2174 3.49593 
585 1 20.971 13.9894 3.49706 
150 1 26.2029 12.2138 0.00680296 
151 2 24.4498 12.2208 1.74609 
189 2 24.4702 13.9773 0.00465181 
192 2 26.2103 13.9903 1.74988 
550 2 26.1986 12.2376 3.48675 
589 2 24.444 13.9892 3.50306 
154 1 29.7071 12.2231 0.0136076 
155 2 27.9544 12.2159 1.74666 
193 1 27.9502 13.972 0.00744958 
196 2 29.715 13.9726 1.75262 
554 2 29.7058 12.2256 3.4824 
593 2 27.9612 13.9631 3.49524 
158 1 33.2026 12.2167 0.00645083 
159 2 31.4669 12.2094 1.7407 
197 2 31.4459 13.9555 0.00447945 
200 1 33.2034 13.9666 1.73517 
558 2 33.2241 12.2131 3.48848 
561 1 34.9418 13.9718 3.48519 
597 2 31.4708 13.9715 3.48898 
162 1 1.74192 15.734 0.0103278 
163 2 0.00377664 15.7212 1.75404 
167 1 3.48871 15.7131 1.75913 
201 2 0.00369822 17.4755 0.00109235 
202 2 1.74407 19.207 0.00490268 
203 2 0.00469968 19.2273 1.75708 
204 1 1.75186 17.4622 1.74655 
205 1 3.49257 17.4685 0.00518276 
207 1 3.47169 19.2259 1.7502 
562 2 1.7454 15.7079 3.48574 
601 2 0.0059009 17.47 3.50649 
602 2 1.73939 19.2308 3.49046 
605 1 3.48023 17.4785 3.49887 
166 1 5.24708 15.7413 0.0111561 
171 1 6.989 15.7276 1.76933 
206 2 5.22543 19.212 0.00138112 
208 2 5.21293 17.4794 1.7682 
209 2 6.97574 17.4697 0.0096183 
211 2 6.96656 19.2233 1.75348 
566 2 5.24485 15.7311 3.49183 
606 1 5.21058 19.2369 3.49512 
609 1 6.98113 17.4941 3.49276 
175 2 10.4792 15.7075 1.73809 
210 2 8.73167 19.2179 0.0156794 
212 2 8.72887 17.4696 1.76032 
215 2 10.4822 19.2185 1.76384 
570 1 8.7382 15.7218 3.49922 
610 1 8.72173 19.224 3.49298 
613 2 10.4784 17.4689 3.49262 
179 1 13.9754 15.725 1.75555 
214 2 12.2395 19.2215 0.01588 
216 2 12.2494 17.4707 1.75634 
219 2 13.9943 19.2011 1.76194 
574 2 12.2282 15.7224 3.4998 
614 1 12.2346 19.2187 3.49848 
617 1 13.974 17.4754 3.51051 
178 2 15.7225 15.7429 0.00728242 
183 2 17.4589 15.734 1.74835 
220 1 15.714 17.4779 1.74631 
222 2 19.2124 19.2172 0.00221754 
223 1 17.4657 19.2131 1.74001 
224 1 19.2125 17.4736 1.75244 
578 2 15.7124 15.7183 3.49244 
582 2 19.2246 15.7337 3.50966 
618 1 15.7385 19.213 3.50699 
621 2 17.4628 17.4734 3.4898 
622 2 19.212 19.2126 3.4868 
187 2 20.97 15.7455 1.76231 
225 2 20.9663 17.4779 0.0119361 
226 2 22.7384 19.221 0.00554438 
227 1 20.9716 19.211 1.75068 
228 1 22.7244 17.4707 1.74539 
586 1 22.7082 15.7395 3.50519 
625 2 20.979 17.4802 3.50439 
626 2 22.7354 19.2102 3.49965 
191 2 24.4649 15.7428 1.7457 
230 1 26.2111 19.2187 0.00514734 
231 1 24.4782 19.2072 1.75773 
232 1 26.2253 17.4657 1.75367 
590 1 26.2284 15.7144 3.51366 
629 1 24.4804 17.4634 3.49212 
630 1 26.22 19.2236 3.50373 
195 2 27.9553 15.7314 1.74285 
235 1 27.9594 19.2125 1.74395 
236 2 29.6974 17.4707 1.75579 
594 2 29.7064 15.7196 3.50948 
633 2 27.9538 17.4767 3.4979 
634 2 29.7 19.2228 3.50479 
199 2 31.4608 15.7206 1.74338 
239 2 31.4426 19.2256 1.74985 
240 2 33.2041 17.4725 1.74295 
598 2 33.2066 15.7292 3.50006 
637 2 31.4582 17.4741 3.50476 
638 1 33.2051 19.2096 3.49007 
242 2 1.72284 22.7243 0.00199181 
244 1 1.73063 20.9707 1.73656 
247 2 3.49497 22.7024 1.75314 
642 2 1.72955 22.725 3.48747 
645 2 3.4746 20.976 3.49138 
248 1 5.24225 20.9619 1.73162 
251 1 6.9886 22.711 1.73965 
646 2 5.25287 22.7033 3.49161 
649 2 6.97916 20.9671 3.49856 
250 2 8.73733 22.716 0.0170732 
252 2 8.71964 20.9778 1.75972 
255 2 10.4652 22.7218 1.75222 
650 1 8.72097 22.7246 3.49197 
653 2 10.4716 20.9588 3.49807 
254 2 12.235 22.7206 0.0116207 
256 2 12.2327 20.9679 1.75653 
257 2 13.9921 20.9589 0.0115689 
259 2 13.9804 22.7225 1.77228 
654 2 12.2196 22.7162 3.49879 
657 2 13.9896 20.9539 3.50283 
258 2 15.7336 22.7117 0.00234322 
260 2 15.743 20.9474 1.74484 
263 2 17.4797 22.716 1.75574 
264 2 19.2177 20.9459 1.74696 
658 2 15.7378 22.7001 3.51454 
661 1 17.4754 20.955 3.50391 
662 2 19.2299 22.7141 3.49668 
265 2 20.9719 20.9777 0.0140981 
266 1 22.7078 22.7084 0.0128911 
267 2 20.9804 22.7136 1.75463 
268 2 22.7325 20.956 1.75594 
665 1 20.9796 20.9435 3.49479 
666 1 22.7096 22.7244 3.50565 
269 1 24.4796 20.974 0.00429257 
270 1 26.2217 22.7243 0.0154292 
271 1 24.459 22.7244 1.76401 
272 1 26.2173 20.9763 1.76371 
669 2 24.4586 20.9725 3.48673 
670 2 26.2224 22.7236 3.49204 
273 2 27.9416 20.9605 0.00424775 
274 2 29.7136 22.715 0.00451951 
275 2 27.9697 22.7142 1.76032 
276 2 29.7076 20.9697 1.74113 
673 2 27.9661 20.9593 3.50173 
674 1 29.7154 22.7073 3.49536 
243 2 34.9218 22.7168 1.73727 
279 1 31.46 22.7096 1.74603 
280 1 33.1855 20.9627 1.74063 
641 1 34.9364 20.9672 3.4904 
677 2 31.4618 20.9617 3.4974 
678 2 33.1858 22.709 3.48435 
284 1 1.74815 24.4687 1.74969 
285 2 3.48446 24.4657 0.000756228 
287 2 3.50133 26.2018 1.7544 
682 1 1.73437 26.1901 3.49307 
685 1 3.50798 24.4532 3.49409 
286 1 5.24558 26.1869 0.00730581 
288 2 5.24825 24.4506 1.74443 
289 2 6.98813 24.4705 0.0126024 
291 1 6.98135 26.2257 1.74888 
686 2 5.24106 26.2161 3.49345 
689 1 6.99073 24.4698 3.48582 
290 2 8.71807 26.2349 0.0128391 
292 1 8.72939 24.472 1.74792 
295 2 10.4737 26.2284 1.74663 
690 2 8.73414 26.2247 3.48134 
693 2 10.4687 24.4696 3.4932 
294 2 12.2453 26.2212 0.00692353 
296 2 12.2162 24.4815 1.75411 
297 2 13.9928 24.4758 0.010083 
299 2 13.9864 26.2224 1.76398 
694 1 12.2305 26.2121 3.4998 
697 2 13.9827 24.4732 3.52137 
298 1 15.7353 26.2038 0.00345054 
300 2 15.7429 24.4653 1.75101 
303 1 17.4686 26.2148 1.73603 
304 2 19.2152 24.4819 1.74047 
698 2 15.7152 26.2156 3.49916 
701 1 17.4634 24.4715 3.51265 
702 2 19.2103 26.2111 3.50541 
306 1 22.7086 26.2299 0.00653282 
307 2 20.9596 26.2231 1.75234 
308 2 22.714 24.4657 1.75331 
705 1 20.9736 24.4808 3.49226 
706 2 22.734 26.2018 3.49546 
309 2 24.4447 24.4544 0.0123451 
310 2 26.203 26.2021 0.00462788 
311 2 24.4777 26.2059 1.74963 
312 2 26.2215 24.4613 1.76406 
709 1 24.4892 24.4758 3.50129 
710 1 26.218 26.227 3.50259 
313 2 27.966 24.4706 0.003176 
314 2 29.7166 26.2259 0.00132556 
315 1 27.9645 26.217 1.74716 
316 2 29.7196 24.4645 1.75989 
713 2 27.9687 24.4748 3.49769 
714 1 29.7194 26.2234 3.49953 
283 2 34.9333 26.1905 1.7312 
319 2 31.4465 26.2102 1.73876 
320 1 33.1748 24.4606 1.72994 
681 1 34.9135 24.4678 3.48275 
717 2 31.4568 24.4644 3.50007 
718 2 33.1894 26.2179 3.48306 
324 2 1.73841 27.9339 1.74272 
327 2 3.49407 29.6957 1.75531 
722 2 1.75175 29.693 3.49758 
725 2 3.48226 27.9559 3.4922 
326 1 5.22751 29.7051 0.00357067 
328 2 5.24049 27.9598 1.73908 
331 2 6.98031 29.6977 1.74232 
726 1 5.22671 29.7082 3.50787 
729 2 6.98393 27.9632 3.48971 
332 1 8.72053 27.9753 1.74173 
333 2 10.4948 27.9808 0.0124123 
335 2 10.4789 29.7124 1.75141 
730 1 8.729 29.7108 3.4973 
733 2 10.4997 27.9758 3.47671 
334 2 12.235 29.7211 0.00949679 
336 1 12.2511 27.9669 1.74838 
339 2 13.978 29.7105 1.74236 
734 1 12.246 29.7177 3.4969 
737 1 13.9748 27.9673 3.50892 
338 1 15.7215 29.7093 0.0126434 
340 2 15.7219 27.9576 1.73344 
342 1 19.2312 29.7046 0.00722222 
343 2 17.4865 29.6939 1.75757 
344 1 19.2168 27.957 1.75078 
738 2 15.7242 29.7106 3.4937 
741 2 17.4647 27.9518 3.49094 
742 2 19.2206 29.7067 3.49967 
345 2 20.9605 27.973 0.00672079 
346 2 22.697 29.7153 0.00517126 
347 1 20.9668 29.7196 1.74909 
348 2 22.7039 27.9671 1.76234 
745 2 20.9631 27.958 3.50917 
746 2 22.7074 29.7176 3.50243 
349 2 24.4598 27.9573 0.00507381 
351 2 24.4618 29.7137 1.75129 
352 2 26.2239 27.9667 1.74854 
749 2 24.4693 27.9499 3.50357 
750 2 26.2195 29.7172 3.4915 
353 2 27.966 27.9664 0.00325635 
355 1 27.9607 29.7232 1.74904 
356 2 29.7081 27.9679 1.74853 
753 2 27.9662 27.9623 3.48892 
754 2 29.7164 29.7192 3.48303 
323 2 34.9406 29.7059 1.74689 
357 1 31.4516 27.967 0.0120459 
359 2 31.4643 29.714 1.74072 
360 1 33.1968 27.9577 1.73428 
721 2 34.9374 27.9414 3.48862 
757 2 31.4673 27.9703 3.49142 
758 1 33.2099 29.7033 3.50477 
363 1 0.00718615 33.1802 1.74016 
364 2 1.73902 31.4474 1.74654 
365 2 3.49681 31.4498 0.0121206 
367 2 3.47935 33.2111 1.74445 
405 2 3.49126 34.9409 3.49965 
762 2 1.73347 33.1974 3.49291 
765 1 3.48724 31.4539 3.48608 
366 1 5.24176 33.2122 0.0106964 
368 2 5.23701 31.454 1.75022 
369 2 6.98483 31.4502 0.00338271 
371 2 7.00095 33.2188 1.74692 
766 2 5.23643 33.1972 3.4807 
769 2 6.97472 31.4429 3.51389 
13 2 10.483 34.9368 0.00723349 
370 2 8.73973 33.184 0.0125108 
372 2 8.73069 31.4427 1.76029 
373 1 10.4721 31.4534 0.00671056 
375 1 10.4695 33.1833 1.76118 
770 2 8.73368 33.1879 3.4961 
773 2 10.4794 31.4436 3.49927 
16 2 12.2225 34.9348 1.75253 
17 2 13.9731 34.9272 0.000332587 
374 1 12.2303 33.197 0.010942 
376 2 12.2285 31.457 1.75313 
379 1 13.9858 33.1852 1.76148 
774 2 12.2329 33.1938 3.49714 
777 2 13.987 31.4487 3.50224 
20 2 15.7263 34.9429 1.76197 
380 2 15.7287 31.4533 1.76022 
381 2 17.4759 31.4342 0.0116008 
383 2 17.4639 33.2008 1.7518 
384 2 19.2171 31.4573 1.73731 
778 2 15.7218 33.2093 3.51642 
781 1 17.4744 31.4612 3.50681 
782 2 19.2092 33.2157 3.49727 
25 2 20.9587 34.9377 0.000853747 
385 1 20.9668 31.4629 0.000650377 
387 2 20.9589 33.2129 1.74284 
388 2 22.7088 31.4736 1.74497 
785 2 20.9544 31.4714 3.48664 
786 2 22.7251 33.2271 3.48905 
391 2 24.4694 33.2232 1.7462 
392 2 26.2166 31.4739 1.73816 
789 2 24.4685 31.4738 3.49481 
790 1 26.2171 33.1977 3.50514 
395 2 27.9745 33.2139 1.73848 
396 2 29.7189 31.4629 1.73677 
793 2 27.977 31.471 3.49184 
794 1 29.724 33.2004 3.48939 
1 1 34.9395 34.9348 0.0065009 
37 2 31.4635 34.9416 0.00127204 
40 2 33.195 34.9293 1.73803 
398 2 33.1998 33.1732 0.00182748 
399 1 31.4614 33.1782 1.73702 
400 1 33.2111 31.4474 1.75401 
761 2 34.9437 31.4535 3.50231 
797 1 31.4633 31.4484 3.48771 
798 1 33.2091 33.2062 3.48903 
404 2 1.74014 0.014579 5.25656 
407 2 3.5023 1.74811 5.22617 
444 1 1.7435 3.49182 5.22414 
802 2 1.74717 1.74726 6.99008 
805 1 3.4984 0.0108704 6.98534 
845 2 3.48071 3.4931 6.99144 
408 1 5.23904 0.00149836 5.22429 
411 1 6.98236 1.74024 5.25334 
448 2 5.23497 3.48669 5.24807 
806 1 5.23275 1.74456 6.98119 
809 1 6.98327 0.00453681 6.99274 
849 2 6.9827 3.48553 6.99856 
415 2 10.4871 1.75237 5.25292 
452 2 8.7322 3.48711 5.23776 
810 1 8.73389 1.75285 6.99096 
853 2 10.4915 3.49332 6.99589 
419 1 13.9605 1.74146 5.26036 
456 2 12.2407 3.48541 5.25257 
814 1 12.2234 1.74464 7.00636 
857 1 13.9873 3.46906 7.00115 
420 1 15.7147 0.0165142 5.2628 
423 1 17.4755 1.75391 5.24964 
424 2 19.2107 0.00782187 5.23956 
460 2 15.7116 3.47404 5.25146 
464 2 19.2346 3.493 5.24285 
818 2 15.7287 1.75077 6.99211 
821 2 17.4763 0.00906376 7.00334 
822 2 19.2214 1.74995 6.9939 
861 2 17.4651 3.49836 7.00638 
427 1 20.9755 1.73591 5.25263 
428 2 22.7281 0.0178212 5.2366 
468 1 22.6983 3.49306 5.22969 
826 1 22.7245 1.74436 6.99464 
865 2 20.9802 3.49053 6.98085 
431 2 24.461 1.75497 5.22891 
432 1 26.2222 0.00958349 5.23659 
472 2 26.203 3.4996 5.23649 
829 2 24.4655 0.00141532 6.98678 
830 2 26.2136 1.74881 6.98168 
869 2 24.4404 3.50284 6.9916 
435 1 27.9591 1.75012 5.2375 
436 2 29.7195 0.00445929 5.22721 
476 2 29.7097 3.49177 5.23361 
833 2 27.9689 0.0130815 6.97869 
834 1 29.7179 1.75733 6.98188 
873 2 27.9678 3.50072 6.97861 
403 2 34.9329 1.75172 5.23828 
439 1 31.4605 1.75535 5.24574 
440 1 33.1876 0.00892295 5.22197 
480 2 33.2039 3.48898 5.24511 
801 1 34.9268 0.00893731 6.9854 
837 2 31.4608 0.00312167 6.96902 
838 2 33.1911 1.7491 7.00085 
841 1 34.941 3.49338 6.98473 
877 2 31.4571 3.51653 6.98795 
443 2 0.00100141 5.23427 5.24516 
447 2 3.49291 5.23372 5.2289 
484 2 1.75818 6.97864 5.24246 
842 2 1.74317 5.23736 6.98033 
881 2 0.00308035 6.97811 6.98709 
885 1 3.49054 6.97219 6.98355 
451 2 6.99394 5.22936 5.25344 
488 1 5.24381 6.9773 5.2422 
846 2 5.23844 5.24537 7.00308 
889 1 6.99093 6.96634 6.98857 
455 1 10.4812 5.22906 5.24155 
492 2 8.73014 6.9858 5.246 
850 2 8.74067 5.22563 7.00788 
893 1 10.4734 6.97007 6.99054 
459 1 13.986 5.23445 5.25902 
496 2 12.2401 6.97759 5.25828 
854 2 12.237 5.2299 6.99424 
897 1 13.9788 6.98585 6.99737 
463 2 17.4782 5.22542 5.26142 
500 2 15.7121 6.98945 5.25271 
504 2 19.215 6.98254 5.24246 
858 1 15.7119 5.2306 6.99974 
862 1 19.2341 5.22488 7.00298 
901 1 17.488 6.98292 6.98913 
467 1 20.9575 5.2521 5.24026 
508 2 22.7214 6.97542 5.24217 
866 2 22.6943 5.23948 6.98709 
905 2 20.953 6.9909 6.98872 
471 2 24.4549 5.25223 5.23475 
512 1 26.2123 7.00037 5.22753 
870 2 26.2192 5.26383 6.97837 
909 2 24.4685 7.00393 6.98658 
475 1 27.9563 5.2355 5.23401 
516 2 29.6906 6.98394 5.23562 
874 1 29.7068 5.25833 6.97923 
913 2 27.9608 6.9989 6.97786 
479 2 31.4461 5.23992 5.24766 
520 2 33.1959 7.00408 5.2393 
878 2 33.1921 5.25038 6.9964 
917 1 31.4513 7.00037 6.97802 
483 2 0.00836335 8.73911 5.23907 
487 2 3.50884 8.72357 5.25965 
524 2 1.73761 10.484 5.24484 
882 1 1.73805 8.72242 6.99126 
925 1 3.49031 10.4763 6.98326 
491 1 6.98201 8.74028 5.25284 
528 2 5.25419 10.4684 5.25777 
886 1 5.24908 8.71289 6.9975 
929 1 6.97787 10.4881 7.00313 
495 2 10.4783 8.73022 5.25584 
532 1 8.72417 10.483 5.24655 
890 2 8.72212 8.74307 6.98583 
933 1 10.4844 10.4809 7.00319 
499 1 13.9729 8.74111 5.25436 
536 2 12.2225 10.4833 5.24416 
894 2 12.2372 8.73186 6.99851 
937 1 13.9791 10.4943 6.99244 
503 2 17.469 8.72864 5.24919 
540 1 15.7316 10.4702 5.24768 
544 2 19.2106 10.4708 5.23081 
898 1 15.709 8.73403 6.98444 
902 1 19.2335 8.7463 6.98687 
941 2 17.4659 10.4623 6.98544 
507 2 20.9647 8.72832 5.22989 
548 2 22.7106 10.4851 5.21966 
906 2 22.7126 8.73025 6.99025 
945 2 20.9664 10.4796 6.9672 
511 1 24.4443 8.73396 5.22493 
552 2 26.2135 10.4783 5.22985 
910 1 26.2144 8.73917 6.96264 
949 2 24.4598 10.4693 6.98807 
515 1 27.9723 8.73571 5.2356 
556 2 29.7097 10.494 5.22407 
914 2 29.7014 8.72842 6.99508 
953 2 27.9748 10.4735 6.96541 
519 2 31.4367 8.7406 5.23077 
560 1 33.2027 10.4651 5.24162 
918 2 33.2002 8.74427 6.99288 
921 2 34.9409 10.4832 6.98644 
957 1 31.4434 10.4756 6.98269 
527 2 3.48741 12.2236 5.24035 
564 1 1.74672 13.9625 5.23672 
922 2 1.74405 12.2266 6.97773 
965 2 3.48273 13.9699 6.99616 
531 2 6.98185 12.2197 5.25004 
568 2 5.22953 13.9833 5.25274 
926 1 5.23475 12.236 6.99806 
969 1 6.97952 13.9881 6.99111 
535 2 10.4746 12.2135 5.23086 
572 2 8.73316 13.967 5.23647 
930 1 8.74187 12.2254 6.99164 
973 2 10.4657 13.966 6.97367 
539 2 13.9774 12.2248 5.25188 
576 1 12.2129 13.9794 5.24852 
934 2 12.2138 12.2236 6.99215 
977 2 13.971 13.9607 6.97882 
543 2 17.478 12.2412 5.24234 
580 1 15.7284 13.9772 5.25709 
584 2 19.2233 13.9943 5.22942 
938 2 15.727 12.2126 6.98521 
942 2 19.2237 12.226 6.98366 
981 2 17.4773 13.9881 6.98167 
547 1 20.9558 12.2195 5.22445 
588 1 22.7014 13.9678 5.24121 
946 2 22.712 12.2216 6.96732 
985 2 20.9629 13.9906 6.96595 
551 2 24.4551 12.2199 5.24087 
592 1 26.2035 13.9604 5.23518 
950 2 26.2103 12.2175 6.98058 
989 2 24.4669 13.972 6.98883 
555 1 27.9633 12.2395 5.23053 
596 1 29.7235 13.9595 5.23924 
954 2 29.7176 12.2223 6.97683 
993 2 27.9568 13.957 6.97457 
523 1 34.9427 12.2166 5.23897 
559 2 31.4639 12.2148 5.23587 
600 2 33.2148 13.9699 5.23285 
958 1 33.197 12.2203 6.97954 
961 1 34.9442 13.9737 6.97976 
997 2 31.4724 13.9611 6.98819 
563 1 0.00595616 15.7154 5.236 
567 2 3.47799 15.7249 5.22858 
604 2 1.73456 17.4729 5.23401 
607 2 3.48707 19.2376 5.23056 
962 2 1.73459 15.7115 6.98459 
1001 1 0.00169347 17.4733 6.9984 
1002 2 1.73002 19.2203 6.99467 
1005 2 3.47764 17.4661 6.96629 
571 2 6.97984 15.733 5.2337 
608 1 5.23391 17.4587 5.22933 
611 1 6.96788 19.2164 5.2313 
966 1 5.22081 15.7317 6.98809 
1006 2 5.23076 19.2079 6.96288 
1009 2 6.97157 17.4573 6.98001 
575 2 10.4738 15.7316 5.24062 
612 2 8.71664 17.4914 5.23496 
615 1 10.482 19.2087 5.22748 
970 2 8.71297 15.715 6.9837 
1010 2 8.72183 19.22 6.98527 
1013 2 10.4668 17.4768 6.98719 
579 2 13.9827 15.7095 5.24391 
616 2 12.2287 17.4686 5.2402 
619 2 13.9701 19.2278 5.23741 
974 2 12.2252 15.7222 6.98784 
1014 2 12.2212 19.2205 6.97898 
1017 2 13.9893 17.4679 6.97902 
583 1 17.462 15.7284 5.23327 
620 2 15.7342 17.4637 5.23551 
623 2 17.4747 19.2147 5.24282 
624 1 19.209 17.4753 5.25137 
978 2 15.7377 15.7215 6.99785 
982 1 19.2179 15.7217 6.97412 
1018 2 15.7247 19.2165 6.99643 
1021 1 17.4678 17.4652 6.99099 
1022 2 19.231 19.197 6.99905 
587 1 20.9759 15.7429 5.23475 
627 2 20.9805 19.2041 5.24214 
628 1 22.7304 17.4804 5.25439 
986 2 22.7033 15.7376 6.9719 
1025 1 20.9662 17.4663 6.99239 
1026 1 22.7219 19.2186 6.99073 
591 2 24.4534 15.7183 5.23889 
631 2 24.4722 19.2148 5.23529 
632 2 26.2159 17.4555 5.23024 
990 2 26.2139 15.7067 6.98553 
1029 1 24.482 17.4661 6.98297 
1030 2 26.2091 19.2168 6.97494 
595 2 27.9746 15.7049 5.24393 
635 1 27.9574 19.2098 5.2496 
636 1 29.7099 17.4775 5.2471 
994 2 29.7222 15.7143 6.98294 
1033 2 27.9543 17.4666 6.97694 
1034 2 29.7147 19.2252 6.99186 
599 2 31.4618 15.7252 5.25449 
603 1 34.9414 19.213 5.22964 
639 2 31.4626 19.2106 5.25048 
640 1 33.2093 17.4722 5.25747 
998 1 33.2118 15.7172 6.98008 
1037 2 31.4677 17.4712 6.98938 
1038 2 33.2101 19.2174 6.99544 
644 1 1.72766 20.9764 5.2569 
647 1 3.47807 22.7236 5.23018 
1042 2 1.72256 22.7209 6.98534 
1045 2 3.48925 20.9819 6.98322 
648 1 5.23563 20.9834 5.24371 
651 1 6.99062 22.7143 5.23071 
1046 2 5.24332 22.7347 6.97767 
1049 2 6.97935 20.9733 6.98703 
652 1 8.7318 20.9615 5.23146 
655 2 10.4677 22.7052 5.2391 
1050 2 8.71893 22.7123 6.9779 
1053 2 10.4729 20.9559 6.9866 
656 2 12.2134 20.9661 5.24664 
659 1 13.9669 22.7042 5.24537 
1054 2 12.2275 22.719 6.99806 
1057 2 13.9735 20.976 6.99137 
660 2 15.7337 20.9683 5.24887 
663 1 17.4934 22.6978 5.24876 
664 2 19.2363 20.9512 5.23751 
1058 2 15.7229 22.7172 6.9883 
1061 2 17.4876 20.9559 6.99252 
1062 2 19.2332 22.7248 6.9894 
667 2 20.9674 22.7286 5.23026 
668 1 22.7168 20.9732 5.2341 
1065 2 20.9773 20.9619 6.9796 
1066 2 22.7171 22.7134 6.97772 
671 2 24.4801 22.7307 5.22399 
672 2 26.218 20.9767 5.23853 
1069 2 24.4635 20.9589 6.97786 
1070 2 26.2338 22.715 6.98504 
675 1 27.9723 22.7139 5.2402 
676 2 29.7062 20.9614 5.25398 
1073 2 27.9761 20.9747 6.98571 
1074 1 29.7113 22.7166 6.99178 
643 1 34.9298 22.7222 5.22084 
679 2 31.4474 22.7159 5.24825 
680 2 33.21 20.9615 5.22966 
1041 2 34.9301 20.9634 6.97825 
1077 1 31.4568 20.9614 6.98609 
1078 1 33.2012 22.71 6.98436 
684 2 1.7261 24.4505 5.21214 
687 2 3.50068 26.2004 5.22872 
1082 2 1.75109 26.1989 6.9764 
1085 2 3.48949 24.4654 6.96614 
688 2 5.25419 24.4572 5.22861 
691 1 6.99727 26.2345 5.22927 
1086 1 5.2466 26.2011 6.9794 
1089 2 6.99099 24.4783 6.97908 
692 2 8.72256 24.461 5.2249 
695 2 10.4789 26.219 5.24039 
1090 2 8.71672 26.2281 6.98965 
1093 2 10.4792 24.4685 6.98896 
696 2 12.233 24.4635 5.24536 
699 1 13.9577 26.2249 5.25064 
1094 2 12.2215 26.2142 6.99009 
1097 1 13.9697 24.4649 6.99452 
700 2 15.7187 24.4565 5.25866 
703 1 17.4636 26.2146 5.23945 
704 2 19.2243 24.4797 5.23944 
1098 2 15.7302 26.2092 6.98977 
1101 2 17.478 24.4689 6.97391 
1102 1 19.2199 26.2053 6.97926 
707 1 20.9851 26.205 5.24244 
708 2 22.7277 24.4709 5.24333 
1105 1 20.9765 24.4711 6.99875 
1106 2 22.7024 26.2296 6.99567 
711 1 24.4692 26.2191 5.2444 
712 1 26.2374 24.4676 5.23784 
1109 2 24.4604 24.4701 6.97077 
1110 2 26.2213 26.2149 6.96763 
715 2 27.9648 26.2145 5.23223 
716 2 29.7176 24.4629 5.23449 
1113 2 27.9796 24.4554 6.99193 
1114 2 29.7139 26.2037 6.97592 
683 2 34.9234 26.1896 5.23595 
719 1 31.4685 26.2217 5.24 
720 1 33.178 24.4489 5.24209 
1081 2 34.9189 24.4473 6.98657 
1117 1 31.4501 24.4648 6.98604 
1118 2 33.1944 26.197 6.99184 
723 2 0.00819262 29.7025 5.24579 
724 2 1.73404 27.9434 5.23718 
727 1 3.48379 29.7065 5.24356 
1122 2 1.74087 29.7061 6.98935 
1125 2 3.48899 27.947 6.98188 
728 2 5.23287 27.9575 5.24297 
731 2 6.98628 29.6999 5.24892 
1126 2 5.24033 29.698 6.97769 
1129 2 6.98597 27.9553 7.0033 
732 2 8.74019 27.9818 5.23369 
735 2 10.4726 29.7204 5.24085 
1130 1 8.72953 29.7047 7.01152 
1133 2 10.4715 27.9673 7.00671 
736 2 12.2272 27.9756 5.23454 
739 2 13.9868 29.7158 5.24562 
1134 2 12.2129 29.7167 6.97864 
1137 2 13.9742 27.956 6.9871 
740 2 15.7289 27.9665 5.25184 
743 1 17.4662 29.7115 5.23282 
744 1 19.2209 27.95 5.2424 
1138 2 15.7476 29.707 6.99333 
1141 2 17.4837 27.9543 6.99555 
1142 1 19.1983 29.7013 6.97552 
747 1 20.9661 29.7257 5.24153 
748 1 22.7065 27.9636 5.23875 
1145 1 20.9622 27.9751 6.98242 
1146 1 22.7266 29.7091 6.97467 
751 2 24.4579 29.6975 5.23443 
752 1 26.2213 27.97 5.23673 
1149 2 24.4575 27.9648 6.97309 
1150 2 26.2057 29.7119 6.99235 
755 2 27.9686 29.7105 5.24315 
756 2 29.7209 27.9691 5.24927 
1153 2 27.9676 27.9599 6.98924 
1154 2 29.7173 29.7229 7.00569 
759 2 31.4598 29.7072 5.24579 
760 1 33.2097 27.9615 5.24456 
1121 2 34.9421 27.9561 6.99641 
1157 2 31.4694 27.9517 7.002 
1158 2 33.2066 29.6989 6.98863 
764 2 1.74552 31.4521 5.24744 
767 2 3.48942 33.1984 5.23585 
1162 2 1.73236 33.2117 6.99499 
1165 2 3.49422 31.4609 6.97714 
768 2 5.23543 31.457 5.24676 
771 2 6.98551 33.2056 5.24802 
1166 2 5.24321 33.2135 6.99418 
1169 1 6.98274 31.4467 6.98917 
412 2 8.72555 34.9392 5.25816 
772 1 8.72885 31.4487 5.25081 
775 2 10.4927 33.1905 5.24783 
813 1 10.4909 34.9385 6.98333 
1170 2 8.73556 33.2003 6.99857 
1173 2 10.4643 31.4615 6.99582 
416 2 12.2374 34.9347 5.25369 
776 1 12.2247 31.4571 5.24316 
779 1 13.9745 33.1922 5.24614 
817 2 13.9591 34.9417 6.99579 
1174 1 12.2327 33.1863 6.99496 
1177 2 13.9753 31.4589 6.98379 
780 1 15.7268 31.454 5.24604 
783 2 17.4479 33.2017 5.26525 
784 2 19.2004 31.4476 5.25102 
1178 2 15.7155 33.2016 7.00393 
1181 2 17.4791 31.4508 6.99863 
1182 1 19.2119 33.2018 6.98214 
787 2 20.9617 33.2029 5.23834 
788 2 22.7157 31.4514 5.24171 
825 2 20.9738 34.9407 6.97927 
1185 2 20.9528 31.4402 6.98754 
1186 2 22.7039 33.1992 6.99388 
791 2 24.4748 33.2103 5.23857 
792 2 26.228 31.4574 5.24277 
1189 2 24.4637 31.4597 6.98836 
1190 2 26.2319 33.218 6.98087 
795 2 27.9825 33.2154 5.24151 
796 1 29.7136 31.4581 5.23306 
1193 2 27.978 31.4652 6.9939 
1194 1 29.7144 33.1959 6.99218 
763 2 34.9291 33.2073 5.24184 
799 1 31.4596 33.1917 5.23439 
800 2 33.1956 31.451 5.22868 
1161 1 34.9323 31.4472 6.99431 
1197 2 31.4554 31.4555 6.98172 
1198 2 33.1945 33.2102 6.97448 
803 1 0.00422958 1.74456 8.72351 
804 1 1.73992 0.000504177 8.73147 
807 2 3.49894 1.74911 8.73477 
844 2 1.73767 3.48996 8.7392 
1201 2 0.00745698 0.0210589 10.4631 
1202 1 1.74085 1.76086 10.4683 
1205 2 3.48298 0.0145792 10.4682 
1241 1 0.000621334 3.49569 10.477 
1245 1 3.50327 3.48257 10.4941 
808 1 5.23536 0.005885 8.72797 
811 1 6.97107 1.74011 8.72664 
848 1 5.24558 3.49828 8.73618 
1206 1 5.24041 1.74164 10.4822 
1209 2 6.98282 0.0108638 10.4771 
1249 1 6.97753 3.4763 10.4819 
812 1 8.74509 0.00559785 8.72606 
815 2 10.4729 1.7434 8.73417 
852 2 8.72831 3.48789 8.75092 
1210 2 8.72055 1.73989 10.4786 
1253 1 10.4853 3.46986 10.4775 
819 2 13.9825 1.73386 8.72972 
856 1 12.2299 3.48805 8.72858 
1214 2 12.2309 1.7418 10.4776 
1257 2 13.969 3.49998 10.4762 
823 1 17.4801 1.75675 8.75881 
860 2 15.7151 3.49005 8.75925 
864 2 19.238 3.48489 8.75442 
1218 2 15.7361 1.73113 10.4911 
1222 1 19.2301 1.74292 10.5007 
1261 2 17.4754 3.48588 10.5008 
827 2 20.9662 1.73626 8.7303 
868 1 22.7003 3.4968 8.73221 
1226 2 22.7155 1.75803 10.4705 
1265 2 20.984 3.49141 10.4979 
831 2 24.452 1.74339 8.73372 
832 1 26.2209 0.0173127 8.73767 
872 2 26.1889 3.50358 8.72659 
1229 2 24.4632 0.0128471 10.4838 
1230 1 26.1939 1.76546 10.4719 
1269 1 24.449 3.50065 10.4637 
835 2 27.9612 1.75227 8.73169 
836 2 29.7089 0.00511857 8.72344 
876 2 29.7168 3.51172 8.72852 
1233 2 27.9495 0.0284237 10.4799 
1234 1 29.6989 1.75755 10.478 
1273 2 27.9488 3.50379 10.4769 
839 2 31.4552 1.76907 8.73601 
840 1 33.186 0.00991371 8.73768 
880 1 33.1939 3.51453 8.73718 
1237 2 31.4535 0.0348188 10.4807 
1238 1 33.2062 1.76782 10.4636 
1277 1 31.4437 3.48703 10.4813 
843 1 0.00867849 5.24671 8.73232 
847 2 3.49833 5.23327 8.745 
884 2 1.75943 6.97869 8.73258 
1242 2 1.74836 5.22166 10.4988 
1285 2 3.50462 6.97619 10.4771 
851 1 6.97476 5.24358 8.75576 
888 1 5.24159 6.98179 8.73789 
1246 1 5.24166 5.24383 10.4871 
1289 1 6.98594 6.99252 10.501 
855 1 10.4914 5.23632 8.74491 
892 2 8.72901 6.9658 8.74282 
1250 1 8.74004 5.22888 10.4898 