ITEM: TIMESTEP
1000
ITEM: NUMBER OF ATOMS
4001
ITEM: BOX BOUNDS pp pp pp
0.0000000000000000e+00 3.4945000000000000e+01
0.0000000000000000e+00 3.4945000000000000e+01
0.0000000000000000e+00 3.4945000000000000e+01
ITEM: ATOMS id type x y z 
2 1 1.72678 1.75208 0.00649318 
4 2 1.72887 0.00874783 1.73978 
7 1 3.49097 1.73691 1.74159 
41 1 0.00904099 3.50769 0.00243788 
44 2 1.75015 3.49113 1.74437 
45 2 3.48581 3.49226 0.0129555 
402 2 1.75187 1.75208 3.47698 
445 2 3.50239 3.49273 3.47992 
6 2 5.233 1.74382 0.00526132 
8 2 5.25109 0.0104427 1.75447 
11 1 6.9955 1.74874 1.74307 
48 2 5.23953 3.4836 1.74367 
406 1 5.2415 1.7469 3.49213 
409 2 6.9942 0.0211298 3.50173 
449 1 6.97169 3.48447 3.49784 
10 2 8.75142 1.75132 0.00624009 
12 1 8.74519 0.00877666 1.74594 
15 2 10.4887 1.74009 1.74443 
52 2 8.73912 3.48842 1.75787 
53 1 10.4876 3.49403 0.00626276 
410 2 8.7268 1.752 3.50411 
413 2 10.4739 0.00718804 3.50392 
453 1 10.4839 3.47987 3.49826 
19 1 13.9729 1.73912 1.74749 
56 2 12.2315 3.47677 1.75659 
57 2 13.9638 3.47943 0.0156418 
414 1 12.2278 1.74585 3.50053 
417 2 13.977 0.0120308 3.50473 
457 1 13.9881 3.47158 3.49761 
18 2 15.7164 1.75014 0.00993948 
23 2 17.4708 1.74161 1.76118 
24 1 19.207 0.00639287 1.75703 
60 2 15.7128 3.49135 1.75362 
64 2 19.212 3.47027 1.74321 
418 1 15.7192 1.73292 3.50871 
421 2 17.4726 0.00400988 3.51466 
422 1 19.2157 1.7435 3.50452 
461 2 17.465 3.48469 3.50445 
27 1 20.9546 1.73287 1.72897 
28 1 22.7066 0.0029074 1.75065 
68 2 22.7176 3.46446 1.73886 
425 1 20.961 0.015726 3.4978 
426 1 22.7103 1.74522 3.49364 
465 2 20.9577 3.47218 3.49837 
29 2 24.4658 0.0109913 0.00205083 
31 1 24.4701 1.74023 1.74235 
32 1 26.2208 0.00283865 1.75658 
72 1 26.2093 3.50389 1.74665 
429 1 24.4766 0.0168301 3.48878 
430 1 26.2194 1.76483 3.49307 
469 2 24.4546 3.48284 3.48626 
34 2 29.6942 1.75215 0.00144231 
35 1 27.9577 1.74456 1.743 
73 1 27.9587 3.47873 0.000661233 
76 1 29.709 3.49232 1.7561 
433 1 27.9652 0.0066756 3.49158 
434 1 29.7222 1.7565 3.48462 
473 2 27.9679 3.48698 3.48306 
36 1 29.7197 0.000563753 1.74791 
3 1 34.9339 1.75418 1.74505 
39 1 31.4537 1.76074 1.71823 
80 2 33.1884 3.50206 1.72852 
401 2 34.9326 0.00246378 3.4849 
438 2 33.174 1.74227 3.4787 
441 2 34.9307 3.4954 3.48709 
477 1 31.4577 3.49791 3.49131 
437 1 31.4516 0.00026736 3.47992 
43 2 0.0111294 5.24408 1.7328 
47 1 3.507 5.25451 1.74839 
84 2 1.75899 6.99268 1.74143 
442 2 1.75034 5.23914 3.48479 
481 2 0.00775777 6.99839 3.48879 
485 2 3.50532 6.98528 3.50251 
51 2 6.98223 5.22191 1.75248 
88 2 5.26075 6.97978 1.7483 
446 2 5.24502 5.23689 3.48749 
489 2 6.99167 6.98059 3.51775 
50 2 8.73137 5.23716 0.0110946 
55 2 10.4958 5.23551 1.76519 
92 1 8.73335 6.97228 1.76482 
450 2 8.73826 5.22415 3.49793 
493 2 10.4925 6.97916 3.50889 
54 2 12.2382 5.22351 0.00456263 
59 1 13.9761 5.23348 1.744 
96 2 12.2431 6.99434 1.73628 
97 2 13.9923 6.97481 0.010996 
454 2 12.249 5.21892 3.5062 
497 1 13.9798 6.99148 3.48596 
58 1 15.7101 5.23886 0.00759889 
63 2 17.4553 5.2352 1.74467 
100 1 15.7249 6.97548 1.76328 
104 2 19.1918 6.9795 1.73064 
458 2 15.7141 5.2283 3.5015 
462 1 19.2161 5.23585 3.486 
501 2 17.4673 6.97803 3.4956 
67 2 20.9538 5.22223 1.75126 
108 2 22.7106 6.98511 1.73818 
466 2 22.6887 5.22666 3.49203 
505 2 20.9456 6.99217 3.48158 
71 2 24.4565 5.23124 1.74391 
112 2 26.2252 6.97261 1.74346 
470 2 26.2144 5.23309 3.50084 
509 2 24.4703 6.9912 3.47794 
74 1 29.7084 5.23478 0.00508739 
75 2 27.9715 5.23842 1.74728 
116 1 29.6997 6.99638 1.75218 
474 2 29.7043 5.23545 3.49292 
513 1 27.9545 6.98664 3.49664 
79 2 31.4416 5.24573 1.74884 
120 2 33.1895 7.00085 1.7305 
478 2 33.197 5.25161 3.49041 
517 2 31.44 6.98929 3.49436 
83 2 0.00106318 8.73613 1.73615 
87 2 3.52034 8.72034 1.74414 
124 2 1.74464 10.4811 1.73881 
482 2 1.77061 8.74604 3.50072 
521 1 0.00930775 10.4667 3.49112 
525 2 3.50579 10.4852 3.50145 
91 2 6.98775 8.7182 1.75749 
128 2 5.2467 10.4792 1.74482 
129 2 6.99975 10.4823 0.0112384 
486 1 5.25184 8.71638 3.50526 
529 1 6.974 10.4683 3.47976 
95 2 10.4889 8.73178 1.73458 
132 2 8.75386 10.4628 1.74792 
490 2 8.72138 8.73427 3.50242 
533 1 10.481 10.4596 3.49284 
99 1 13.9839 8.73853 1.73424 
136 1 12.2213 10.4791 1.75033 
137 2 13.9571 10.4822 0.00440492 
494 2 12.2405 8.73241 3.49086 
537 2 13.964 10.4744 3.50754 
103 2 17.4497 8.72822 1.73741 
140 2 15.7058 10.4824 1.75441 
144 2 19.2271 10.4756 1.7365 
498 2 15.7208 8.73338 3.50465 
502 1 19.2053 8.7336 3.47194 
541 2 17.4792 10.4917 3.48952 
107 2 20.955 8.74117 1.72892 
148 1 22.7021 10.4706 1.73942 
506 2 22.6985 8.73642 3.48289 
545 1 20.9599 10.463 3.49862 
111 2 24.4663 8.72765 1.73065 
152 2 26.1991 10.4766 1.73558 
510 2 26.2231 8.7359 3.50189 
549 2 24.4492 10.4718 3.47198 
114 1 29.7006 8.72921 0.00688276 
115 1 27.9475 8.7352 1.72492 
156 2 29.7146 10.4636 1.73263 
514 2 29.6876 8.738 3.46612 
553 1 27.9512 10.488 3.49204 
119 1 31.4639 8.73826 1.73449 
160 1 33.2156 10.4791 1.74023 
518 2 33.2028 8.73898 3.48429 
557 2 31.468 10.4709 3.48384 
123 2 0.00305126 12.2163 1.74468 
127 2 3.50101 12.2408 1.73583 
161 2 0.0047879 13.9593 0.0101122 
164 2 1.73911 13.9778 1.75125 
522 1 1.73405 12.2265 3.49622 
565 2 3.49216 13.9683 3.49664 
131 2 6.99068 12.2398 1.75924 
168 2 5.24645 13.9804 1.74793 
169 2 6.99713 13.9952 0.0138396 
526 1 5.24597 12.2302 3.50405 
569 1 6.97383 13.9812 3.49934 
135 1 10.4711 12.2202 1.75252 
172 2 8.74288 13.9817 1.76286 
530 2 8.72467 12.2259 3.50235 
573 1 10.4853 13.9823 3.50017 
139 2 13.9667 12.2303 1.75473 
176 2 12.2293 13.9647 1.75142 
177 2 13.9764 13.9898 0.0152434 
534 2 12.2127 12.2313 3.4957 
577 1 13.9768 13.9684 3.50681 
143 2 17.4663 12.2429 1.74263 
180 1 15.725 13.9787 1.74471 
184 2 19.2004 13.9949 1.74468 
538 2 15.7262 12.2388 3.50613 
542 2 19.2327 12.2275 3.48958 
581 1 17.4708 13.9791 3.50202 
146 2 22.7171 12.2328 0.0170121 
147 2 20.9685 12.2161 1.76311 
185 2 20.9511 13.9685 0.0166999 
188 2 22.7073 13.9904 1.76523 
546 1 22.7055 12.2174 3.49588 
585 1 20.971 13.9893 3.49705 
150 1 26.2029 12.2138 0.00678702 
151 2 24.4498 12.2207 1.74608 
189 2 24.4702 13.9773 0.00465113 
192 2 26.2103 13.9903 1.74989 
550 2 26.1986 12.2375 3.48669 
589 2 24.444 13.9892 3.50312 
154 1 29.7071 12.2231 0.0135683 
155 2 27.9544 12.2159 1.74662 
193 1 27.9502 13.972 0.00742985 
196 2 29.715 13.9726 1.75259 
554 2 29.7059 12.2256 3.48231 
593 2 27.9612 13.9631 3.4952 
158 1 33.2026 12.2167 0.00643223 
159 2 31.467 12.2094 1.74067 
197 2 31.4459 13.9555 0.00446125 
200 1 33.2035 13.9666 1.73515 
558 2 33.2242 12.2131 3.48846 
561 1 34.9419 13.9719 3.48522 
597 2 31.4709 13.9715 3.48892 
162 1 1.74194 15.734 0.0103732 
163 2 0.00384353 15.7212 1.75406 
167 1 3.48876 15.7132 1.75923 
201 2 0.00371741 17.4756 0.00110591 
202 2 1.74408 19.207 0.0049611 
203 2 0.00476443 19.2273 1.75709 
204 1 1.75192 17.4622 1.74663 
205 1 3.49258 17.4685 0.00526024 
207 1 3.47175 19.2258 1.7503 
562 2 1.74553 15.7079 3.48582 
601 2 0.00601344 17.47 3.50651 
602 2 1.7395 19.2308 3.49055 
605 1 3.48036 17.4785 3.49903 
166 1 5.24704 15.7414 0.0112568 
171 1 6.989 15.7277 1.76945 
206 2 5.22541 19.212 0.00147887 
208 2 5.21298 17.4794 1.76834 
209 2 6.97569 17.4697 0.00971567 
211 2 6.96659 19.2233 1.7536 
566 2 5.24496 15.7312 3.49201 
606 1 5.21073 19.2369 3.49533 
609 1 6.98125 17.4941 3.49295 
175 2 10.4791 15.7075 1.7381 
210 2 8.7316 19.2179 0.0157444 
212 2 8.72885 17.4696 1.76037 
215 2 10.4822 19.2185 1.76384 
570 1 8.73824 15.7219 3.49932 
610 1 8.72181 19.224 3.49309 
613 2 10.4784 17.469 3.49258 
179 1 13.9754 15.725 1.75551 
214 2 12.2395 19.2215 0.0158882 
216 2 12.2494 17.4707 1.75631 
219 2 13.9943 19.2011 1.76191 
574 2 12.2282 15.7224 3.49972 
614 1 12.2346 19.2187 3.49841 
617 1 13.974 17.4754 3.51041 
178 2 15.7225 15.7429 0.00729079 
183 2 17.4589 15.734 1.74834 
220 1 15.714 17.4779 1.74628 
222 2 19.2124 19.2171 0.00221895 
223 1 17.4657 19.2131 1.74 
224 1 19.2125 17.4736 1.75246 
578 2 15.7123 15.7183 3.49235 
582 2 19.2246 15.7337 3.50967 
618 1 15.7385 19.213 3.50694 
621 2 17.4628 17.4734 3.48978 
622 2 19.212 19.2126 3.48683 
187 2 20.9701 15.7455 1.76235 
225 2 20.9663 17.4779 0.0119464 
226 2 22.7384 19.2209 0.00554534 
227 1 20.9716 19.2109 1.75072 
228 1 22.7244 17.4707 1.74544 
586 1 22.7082 15.7395 3.50527 
625 2 20.979 17.4803 3.50449 
626 2 22.7354 19.2102 3.49978 
191 2 24.4649 15.7428 1.74573 
230 1 26.211 19.2187 0.0051433 
231 1 24.4782 19.2072 1.75779 
232 1 26.2252 17.4657 1.75372 
590 1 26.2283 15.7144 3.51373 
629 1 24.4804 17.4635 3.49223 
630 1 26.2199 19.2236 3.50385 
195 2 27.9553 15.7315 1.74287 
235 1 27.9593 19.2125 1.744 
236 2 29.6973 17.4708 1.7558 
594 2 29.7065 15.7196 3.50943 
633 2 27.9537 17.4767 3.49799 
634 2 29.6999 19.2228 3.50479 
199 2 31.4609 15.7206 1.74336 
239 2 31.4426 19.2256 1.74984 
240 2 33.2041 17.4725 1.74294 
598 2 33.2068 15.7292 3.50003 
637 2 31.4583 17.4741 3.5047 
638 1 33.2052 19.2096 3.49003 
242 2 1.72284 22.7243 0.00201182 
244 1 1.73069 20.9707 1.73662 
247 2 3.49502 22.7024 1.75323 
642 2 1.72965 22.725 3.48755 
645 2 3.47473 20.9759 3.49152 
248 1 5.24229 20.9619 1.73173 
251 1 6.98861 22.711 1.73977 
646 2 5.25298 22.7032 3.49179 
649 2 6.97928 20.9671 3.49873 
250 2 8.73727 22.716 0.0171428 
252 2 8.71965 20.9778 1.7598 
255 2 10.4652 22.7218 1.75224 
650 1 8.72106 22.7245 3.49212 
653 2 10.4717 20.9588 3.49809 
254 2 12.2349 22.7206 0.0116332 
256 2 12.2327 20.9679 1.7565 
257 2 13.992 20.9589 0.0115678 
259 2 13.9803 22.7225 1.77227 
654 2 12.2196 22.7162 3.4988 
657 2 13.9895 20.9539 3.50278 
258 2 15.7336 22.7117 0.00233962 
260 2 15.743 20.9474 1.74482 
263 2 17.4797 22.716 1.75574 
264 2 19.2177 20.9459 1.74698 
658 2 15.7377 22.7001 3.51452 
661 1 17.4754 20.955 3.50391 
662 2 19.2299 22.714 3.49672 
265 2 20.9718 20.9776 0.0140934 
266 1 22.7078 22.7084 0.0128775 
267 2 20.9804 22.7136 1.75466 
268 2 22.7325 20.956 1.75599 
665 1 20.9796 20.9434 3.49488 
666 1 22.7096 22.7243 3.50578 
269 1 24.4795 20.974 0.00429133 
270 1 26.2216 22.7243 0.0154177 
271 1 24.4589 22.7244 1.76406 
272 1 26.2172 20.9763 1.76376 
669 2 24.4585 20.9725 3.48683 
670 2 26.2223 22.7236 3.49214 
273 2 27.9415 20.9605 0.0042334 
274 2 29.7135 22.7149 0.00448985 
275 2 27.9697 22.7142 1.76035 
276 2 29.7075 20.9697 1.74113 
673 2 27.966 20.9593 3.5018 
674 1 29.7154 22.7073 3.49531 
243 2 34.9218 22.7168 1.73727 
279 1 31.46 22.7096 1.74599 
280 1 33.1855 20.9627 1.7406 
641 1 34.9365 20.9672 3.49042 
677 2 31.4618 20.9617 3.49735 
678 2 33.1859 22.709 3.48431 
284 1 1.74818 24.4686 1.74973 
285 2 3.48443 24.4656 0.000806795 
287 2 3.50134 26.2018 1.75446 
682 1 1.73441 26.19 3.49311 
685 1 3.50805 24.4531 3.49419 
286 1 5.24553 26.1869 0.00738141 
288 2 5.24827 24.4506 1.74454 
289 2 6.98808 24.4705 0.0127002 
291 1 6.98134 26.2257 1.74899 
686 2 5.2411 26.216 3.49355 
689 1 6.9908 24.4697 3.48598 
290 2 8.71801 26.2349 0.012928 
292 1 8.72939 24.472 1.74803 
295 2 10.4737 26.2284 1.74671 
690 2 8.73417 26.2246 3.48146 
693 2 10.4688 24.4695 3.49332 
294 2 12.2453 26.2212 0.00697745 
296 2 12.2162 24.4815 1.75413 
297 2 13.9928 24.4758 0.0100922 
299 2 13.9863 26.2223 1.76403 
694 1 12.2305 26.212 3.49994 
697 2 13.9827 24.4731 3.52143 
298 1 15.7353 26.2038 0.00347201 
300 2 15.7429 24.4652 1.75101 
303 1 17.4686 26.2147 1.73605 
304 2 19.2151 24.4819 1.74049 
698 2 15.7152 26.2155 3.49921 
701 1 17.4633 24.4714 3.51269 
702 2 19.2102 26.211 3.50549 
306 1 22.7085 26.2298 0.00652373 
307 2 20.9595 26.223 1.75237 
308 2 22.7139 24.4656 1.75334 
705 1 20.9735 24.4808 3.49233 
706 2 22.7339 26.2017 3.49557 
309 2 24.4447 24.4544 0.0123317 
310 2 26.2029 26.202 0.00459742 
311 2 24.4776 26.2059 1.74965 
312 2 26.2214 24.4613 1.7641 
709 1 24.4891 24.4757 3.50141 
710 1 26.2179 26.2269 3.50258 
313 2 27.966 24.4705 0.00314134 
314 2 29.7165 26.2258 0.00127139 
315 1 27.9645 26.217 1.74712 
316 2 29.7196 24.4644 1.75986 
713 2 27.9687 24.4748 3.49768 
714 1 29.7194 26.2234 3.49946 
283 2 34.9333 26.1905 1.73118 
319 2 31.4465 26.2101 1.73871 
320 1 33.1748 24.4606 1.72991 
681 1 34.9136 24.4678 3.48276 
717 2 31.4568 24.4644 3.5 
718 2 33.1894 26.2179 3.48302 
324 2 1.73841 27.9338 1.74274 
327 2 3.49404 29.6956 1.75535 
722 2 1.75176 29.693 3.49759 
725 2 3.48228 27.9558 3.49225 
326 1 5.22745 29.7051 0.00362186 
328 2 5.24047 27.9598 1.73915 
331 2 6.98028 29.6976 1.74238 
726 1 5.2267 29.7081 3.50791 
729 2 6.98393 27.9631 3.4898 
332 1 8.72051 27.9752 1.74182 
333 2 10.4948 27.9808 0.0124945 
335 2 10.4789 29.7124 1.75147 
730 1 8.72898 29.7107 3.49736 
733 2 10.4997 27.9757 3.47681 
334 2 12.235 29.7211 0.00957097 
336 1 12.251 27.9669 1.74846 
339 2 13.9779 29.7105 1.74242 
734 1 12.246 29.7177 3.49698 
737 1 13.9748 27.9672 3.50906 
338 1 15.7215 29.7093 0.012692 
340 2 15.7219 27.9576 1.73348 
342 1 19.2312 29.7046 0.00724885 
343 2 17.4865 29.6938 1.7576 
344 1 19.2167 27.9569 1.75081 
738 2 15.7241 29.7105 3.49378 
741 2 17.4647 27.9517 3.49101 
742 2 19.2206 29.7066 3.49972 
345 2 20.9604 27.973 0.00672884 
346 2 22.697 29.7152 0.00517909 
347 1 20.9668 29.7195 1.74912 
348 2 22.7038 27.9671 1.76237 
745 2 20.963 27.9579 3.50925 
746 2 22.7073 29.7176 3.50243 
349 2 24.4597 27.9572 0.00505142 
351 2 24.4617 29.7136 1.75127 
352 2 26.2239 27.9666 1.74851 
749 2 24.4692 27.9499 3.50358 
750 2 26.2194 29.7172 3.49147 
353 2 27.966 27.9663 0.00319893 
355 1 27.9607 29.7231 1.74899 
356 2 29.708 27.9679 1.74848 
753 2 27.9662 27.9623 3.48888 
754 2 29.7164 29.7192 3.48298 
323 2 34.9406 29.7059 1.74687 
357 1 31.4516 27.967 0.011994 
359 2 31.4643 29.714 1.74068 
360 1 33.1968 27.9577 1.73425 
721 2 34.9375 27.9414 3.4886 
757 2 31.4673 27.9703 3.49137 
758 1 33.2099 29.7033 3.50474 
363 1 0.00716451 33.1802 1.74014 
364 2 1.739 31.4474 1.74654 
365 2 3.49676 31.4498 0.0121435 
367 2 3.47932 33.2111 1.74447 
405 2 3.49124 34.9409 3.49965 
762 2 1.73345 33.1974 3.49291 
765 1 3.48722 31.4539 3.48609 
366 1 5.24171 33.2122 0.0107265 
368 2 5.23697 31.454 1.75025 
369 2 6.98478 31.4502 0.00344185 
371 2 7.00091 33.2188 1.74695 
766 2 5.23639 33.1972 3.4807 
769 2 6.97469 31.4429 3.51391 
13 2 10.4829 34.9368 0.00726186 
370 2 8.73969 33.184 0.0125507 
372 2 8.73065 31.4427 1.76034 
373 1 10.4721 31.4534 0.00676872 
375 1 10.4694 33.1833 1.7612 
770 2 8.73363 33.1879 3.4961 
773 2 10.4794 31.4436 3.49929 
16 2 12.2225 34.9348 1.75253 
17 2 13.9731 34.9273 0.00035492 
374 1 12.2303 33.197 0.0109855 
376 2 12.2285 31.457 1.75318 
379 1 13.9858 33.1852 1.7615 
774 2 12.2329 33.1938 3.49712 
777 2 13.987 31.4486 3.50226 
20 2 15.7263 34.9429 1.76196 
380 2 15.7287 31.4532 1.76026 
381 2 17.4759 31.4341 0.0116354 
383 2 17.4639 33.2008 1.75181 
384 2 19.2171 31.4573 1.73733 
778 2 15.7218 33.2093 3.5164 
781 1 17.4744 31.4611 3.50683 
782 2 19.2092 33.2157 3.49724 
25 2 20.9587 34.9377 0.000828623 
385 1 20.9668 31.4628 0.000660516 
387 2 20.9589 33.2129 1.74283 
388 2 22.7088 31.4736 1.74497 
785 2 20.9544 31.4714 3.48662 
786 2 22.7251 33.2271 3.48902 
391 2 24.4694 33.2231 1.74616 
392 2 26.2166 31.4739 1.73812 
789 2 24.4685 31.4737 3.49478 
790 1 26.2171 33.1977 3.5051 
395 2 27.9745 33.2139 1.73843 
396 2 29.7189 31.4628 1.73673 
793 2 27.9769 31.4709 3.4918 
794 1 29.724 33.2004 3.48935 
1 1 34.9395 34.9348 0.00648343 
37 2 31.4635 34.9415 0.001229 
40 2 33.1949 34.9292 1.73801 
398 2 33.1998 33.1732 0.00179144 
399 1 31.4614 33.1782 1.73698 
400 1 33.2111 31.4474 1.75398 
761 2 34.9437 31.4535 3.50229 
797 1 31.4633 31.4483 3.48768 
798 1 33.2091 33.2062 3.489 
404 2 1.74013 0.0145771 5.25655 
407 2 3.50228 1.74813 5.22617 
444 1 1.74353 3.49184 5.22414 
802 2 1.74718 1.74727 6.99007 
805 1 3.49838 0.0108874 6.98533 
845 2 3.48074 3.49315 6.99146 
408 1 5.239 0.00152054 5.22428 
411 1 6.98232 1.74028 5.25334 
448 2 5.23496 3.48674 5.24809 
806 1 5.23272 1.74461 6.98118 
809 1 6.9832 0.00458133 6.9927 
849 2 6.98267 3.4856 6.99857 
415 2 10.487 1.75242 5.25288 
452 2 8.73215 3.48716 5.23776 
810 1 8.73383 1.75291 6.99092 
853 2 10.4914 3.49336 6.99587 
419 1 13.9605 1.7415 5.26029 
456 2 12.2407 3.48544 5.25254 
814 1 12.2234 1.74469 7.00629 
857 1 13.9872 3.46907 7.00109 
420 1 15.7147 0.0165677 5.26272 
423 1 17.4755 1.75393 5.24957 
424 2 19.2107 0.00786149 5.23948 
460 2 15.7115 3.47405 5.2514 
464 2 19.2346 3.49297 5.24278 
818 2 15.7286 1.7508 6.99203 
821 2 17.4763 0.0091347 7.00322 
822 2 19.2214 1.74996 6.99383 
861 2 17.465 3.49834 7.00632 
427 1 20.9755 1.73591 5.25256 
428 2 22.7281 0.0178187 5.23654 
468 1 22.6984 3.49302 5.22961 
826 1 22.7245 1.74435 6.99458 
865 2 20.9802 3.4905 6.98078 
431 2 24.461 1.75495 5.22886 
432 1 26.2223 0.0095593 5.23655 
472 2 26.2031 3.49955 5.23643 
829 2 24.4655 0.00140428 6.98674 
830 2 26.2136 1.74877 6.98165 
869 2 24.4404 3.50279 6.99154 
435 1 27.9592 1.75009 5.23746 
436 2 29.7195 0.00443273 5.22718 
476 2 29.7097 3.49172 5.23357 
833 2 27.9689 0.013054 6.97867 
834 1 29.718 1.75729 6.98186 
873 2 27.9678 3.50066 6.97856 
403 2 34.9329 1.75171 5.23827 
439 1 31.4605 1.75532 5.24572 
440 1 33.1876 0.00890521 5.22195 
480 2 33.2039 3.48896 5.24509 
801 1 34.9268 0.00892759 6.9854 
837 2 31.4608 0.00309648 6.96901 
838 2 33.1911 1.74908 7.00084 
841 1 34.9411 3.49339 6.98473 
877 2 31.4572 3.51648 6.98792 
443 2 0.00106383 5.23428 5.24516 
447 2 3.49295 5.23378 5.22895 
484 2 1.75828 6.97869 5.24251 
842 2 1.74325 5.2374 6.98035 
881 2 0.00319861 6.97812 6.98709 
885 1 3.49065 6.97229 6.98363 
451 2 6.99393 5.22944 5.25349 
488 1 5.24386 6.9774 5.24229 
846 2 5.23849 5.24547 7.00314 
889 1 6.99099 6.96645 6.98867 
455 1 10.4812 5.22911 5.24157 
492 2 8.73013 6.98588 5.24607 
850 2 8.74064 5.2257 7.00791 
893 1 10.4733 6.97014 6.99059 
459 1 13.9859 5.23444 5.25899 
496 2 12.2401 6.97761 5.25828 
854 2 12.2369 5.22992 6.99424 
897 1 13.9786 6.98581 6.99734 
463 2 17.4782 5.22537 5.26134 
500 2 15.712 6.98941 5.25265 
504 2 19.2149 6.98245 5.24237 
858 1 15.7118 5.23055 6.99967 
862 1 19.2341 5.2248 7.00288 
901 1 17.4879 6.98279 6.98899 
467 1 20.9575 5.25203 5.24018 
508 2 22.7214 6.97532 5.24206 
866 2 22.6943 5.2394 6.98698 
905 2 20.9529 6.99078 6.98858 
471 2 24.4549 5.25216 5.23467 
512 1 26.2123 7.00026 5.22741 
870 2 26.2192 5.26372 6.97827 
909 2 24.4685 7.00379 6.98644 
475 1 27.9564 5.23542 5.23393 
516 2 29.6907 6.98385 5.23553 
874 1 29.7068 5.25824 6.97916 
913 2 27.9609 6.99877 6.97773 
479 2 31.4462 5.23987 5.2476 
520 2 33.196 7.00405 5.23926 
878 2 33.1922 5.25035 6.99637 
917 1 31.4514 7.00029 6.97795 
483 2 0.00849942 8.73911 5.23908 
487 2 3.50896 8.72368 5.25976 
524 2 1.73776 10.484 5.24491 
882 1 1.7382 8.72248 6.99133 
925 1 3.49051 10.4764 6.98342 
491 1 6.98207 8.74039 5.25297 
528 2 5.25433 10.4686 5.25794 
886 1 5.24922 8.71304 6.99766 
929 1 6.97806 10.4883 7.00337 
495 2 10.4783 8.7303 5.25591 
532 1 8.7242 10.4831 5.24668 
890 2 8.72218 8.74321 6.98597 
933 1 10.4844 10.481 7.00333 
499 1 13.9728 8.74108 5.25432 
536 2 12.2224 10.4834 5.24416 
894 2 12.2371 8.73188 6.99854 
937 1 13.9789 10.4943 6.99237 
503 2 17.4689 8.72857 5.2491 
540 1 15.7315 10.4701 5.24758 
544 2 19.2106 10.4707 5.23069 
898 1 15.7089 8.73392 6.98432 
902 1 19.2334 8.74612 6.98668 
941 2 17.4657 10.4622 6.98533 
507 2 20.9647 8.7282 5.22977 
548 2 22.7106 10.4849 5.21952 
906 2 22.7126 8.73004 6.99005 
945 2 20.9663 10.4793 6.96696 
511 1 24.4443 8.73381 5.22478 
552 2 26.2135 10.4781 5.22968 
910 1 26.2145 8.73899 6.96246 
949 2 24.4599 10.469 6.98779 
515 1 27.9724 8.73559 5.23546 
556 2 29.7098 10.4939 5.22394 
914 2 29.7015 8.7283 6.99494 
953 2 27.9749 10.4733 6.9652 
519 2 31.4368 8.74052 5.23069 
560 1 33.2028 10.4651 5.24157 
918 2 33.2003 8.74421 6.99282 
921 2 34.9411 10.4832 6.98643 
957 1 31.4436 10.4754 6.98257 
527 2 3.48758 12.2237 5.24051 
564 1 1.74688 13.9626 5.23681 
922 2 1.74423 12.2266 6.97781 
965 2 3.48297 13.9701 6.99635 
961 1 -0.000630744 13.9738 6.97977 
531 2 6.98198 12.2198 5.25023 
568 2 5.22975 13.9835 5.25298 
926 1 5.235 12.2362 6.99832 
969 1 6.97986 13.9884 6.99148 
535 2 10.4746 12.2136 5.23092 
572 2 8.73326 13.9671 5.23664 
930 1 8.74206 12.2256 6.99189 
973 2 10.4658 13.9662 6.97381 
539 2 13.9772 12.2247 5.25179 
576 1 12.2128 13.9795 5.24848 
934 2 12.2138 12.2237 6.99215 
977 2 13.9708 13.9606 6.97867 
543 2 17.4779 12.2411 5.24212 
580 1 15.7283 13.9771 5.25681 
584 2 19.2233 13.9942 5.22925 
938 2 15.7268 12.2124 6.98501 
942 2 19.2235 12.2257 6.98337 
981 2 17.4771 13.9877 6.98109 
547 1 20.9558 12.2194 5.22433 
588 1 22.7014 13.9678 5.24121 
946 2 22.712 12.2213 6.96706 
985 2 20.9628 13.9904 6.96585 
551 2 24.4551 12.2198 5.24072 
592 1 26.2035 13.9603 5.23509 
950 2 26.2104 12.2171 6.98023 
989 2 24.4669 13.9717 6.98855 
555 1 27.9634 12.2394 5.23037 
596 1 29.7236 13.9594 5.23908 
954 2 29.7178 12.2221 6.9766 
993 2 27.9571 13.9568 6.97424 
523 1 34.9429 12.2166 5.23898 
559 2 31.4641 12.2147 5.23577 
600 2 33.2149 13.9699 5.23281 
958 1 33.1972 12.2203 6.97947 
997 2 31.4726 13.961 6.98801 
563 1 0.00611071 15.7154 5.23601 
567 2 3.4782 15.7249 5.22878 
604 2 1.73472 17.4729 5.23411 
607 2 3.48727 19.2376 5.23076 
962 2 1.73475 15.7116 6.98469 
1001 1 0.00181919 17.4733 6.99843 
1002 2 1.73015 19.2203 6.99478 
1005 2 3.47788 17.4661 6.96651 
571 2 6.98009 15.7331 5.23397 
608 1 5.23417 17.4588 5.22961 
611 1 6.9682 19.2164 5.23161 
966 1 5.22118 15.7318 6.98844 
1006 2 5.23118 19.2079 6.96326 
1009 2 6.97213 17.4574 6.98049 
575 2 10.4738 15.7317 5.24069 
612 2 8.71688 17.4914 5.23521 
615 1 10.4822 19.2087 5.22751 
970 2 8.7134 15.7152 6.9841 
1010 2 8.72259 19.22 6.98591 
1013 2 10.4673 17.4771 6.98758 
579 2 13.9825 15.7094 5.24372 
616 2 12.2287 17.4686 5.24007 
619 2 13.9701 19.2278 5.23727 
974 2 12.2252 15.7224 6.98784 
1014 2 12.2214 19.2206 6.97897 
1017 2 13.9891 17.4678 6.97874 
583 1 17.4619 15.7283 5.23309 
620 2 15.7341 17.4637 5.23538 
623 2 17.4747 19.2147 5.24284 
624 1 19.209 17.4753 5.25146 
978 2 15.7373 15.7213 6.99735 
982 1 19.2179 15.7215 6.97378 
1018 2 15.7245 19.2165 6.99622 
1021 1 17.4676 17.4651 6.99083 
1022 2 19.231 19.197 6.99955 
587 1 20.976 15.7429 5.23479 
627 2 20.9805 19.2041 5.24237 
628 1 22.7304 17.4805 5.25466 
986 2 22.7032 15.7376 6.97222 
1025 1 20.9664 17.4663 6.99259 
1026 1 22.7218 19.2186 6.99147 
591 2 24.4533 15.7184 5.23912 
631 2 24.4721 19.2148 5.23553 
632 2 26.2158 17.4555 5.23048 
990 2 26.2139 15.7066 6.98529 
1029 1 24.4816 17.4663 6.98363 
1030 2 26.2088 19.2168 6.97537 
595 2 27.9746 15.7049 5.24387 
635 1 27.9573 19.2098 5.24966 
636 1 29.71 17.4775 5.24696 
994 2 29.7225 15.7142 6.98267 
1033 2 27.9546 17.4665 6.97668 
1034 2 29.7151 19.2253 6.9915 
599 2 31.462 15.7251 5.25437 
603 1 34.9415 19.213 5.22966 
639 2 31.4627 19.2106 5.25034 
640 1 33.2095 17.4722 5.25743 
998 1 33.212 15.7172 6.98 
1037 2 31.4679 17.4712 6.98922 
1038 2 33.2102 19.2174 6.9954 
644 1 1.7278 20.9764 5.257 
647 1 3.47824 22.7235 5.23035 
1042 2 1.72268 22.7208 6.98543 
1045 2 3.48945 20.9818 6.98342 
648 1 5.23588 20.9833 5.24398 
651 1 6.99083 22.7141 5.23096 
1046 2 5.2436 22.7345 6.97796 
1049 2 6.97987 20.9731 6.98749 
652 1 8.73206 20.9614 5.23171 
655 2 10.4678 22.7051 5.23936 
1050 2 8.7193 22.7119 6.97831 
1053 2 10.4734 20.9556 6.98713 
656 2 12.2134 20.9661 5.24668 
659 1 13.9669 22.7041 5.2454 
1054 2 12.2279 22.7186 6.99872 
1057 2 13.9735 20.976 6.99128 
660 2 15.7336 20.9683 5.24879 
663 1 17.4933 22.6977 5.24876 
664 2 19.2363 20.9511 5.23761 
1058 2 15.7227 22.7171 6.98844 
1061 2 17.4874 20.9557 6.99249 
1062 2 19.2331 22.7246 6.98933 
667 2 20.9673 22.7285 5.23034 
668 1 22.7167 20.9732 5.23442 
1065 2 20.9773 20.9618 6.97985 
1066 2 22.7166 22.7131 6.97849 
671 2 24.4799 22.7307 5.22428 
672 2 26.2178 20.9767 5.23876 
1069 2 24.463 20.9588 6.97874 
1070 2 26.2338 22.7152 6.98483 
675 1 27.9723 22.714 5.24013 
676 2 29.7063 20.9614 5.25384 
1073 2 27.9764 20.9748 6.9854 
1074 1 29.7116 22.7167 6.99151 
643 1 34.9299 22.7222 5.22085 
679 2 31.4475 22.716 5.24811 
680 2 33.2101 20.9615 5.2296 
1041 2 34.9303 20.9634 6.97828 
1077 1 31.4571 20.9615 6.98591 
1078 1 33.2013 22.71 6.98431 
684 2 1.7262 24.4504 5.2122 
687 2 3.50075 26.2003 5.2288 
1082 2 1.75118 26.1989 6.97645 
1085 2 3.48964 24.4653 6.96626 
688 2 5.25431 24.4571 5.22878 
691 1 6.99734 26.2344 5.22941 
1086 1 5.24671 26.2009 6.9795 
1089 2 6.99118 24.478 6.9793 
692 2 8.72269 24.4608 5.22511 
695 2 10.479 26.2188 5.24059 
1090 2 8.7168 26.2279 6.98976 
1093 2 10.4794 24.4681 6.98936 
696 2 12.2331 24.4633 5.24565 
699 1 13.9577 26.2247 5.2509 
1094 2 12.2217 26.2138 6.99038 
1097 1 13.9699 24.4644 6.99513 
700 2 15.7186 24.4563 5.25878 
703 1 17.4635 26.2144 5.23958 
704 2 19.2242 24.4796 5.23952 
1098 2 15.7303 26.2085 6.99043 
1101 2 17.4777 24.4686 6.97407 
1102 1 19.2195 26.2048 6.9797 
707 1 20.9849 26.2048 5.24267 
708 2 22.7275 24.4708 5.24361 
1105 1 20.976 24.4707 6.9993 
1106 2 22.7021 26.2295 6.99572 
711 1 24.469 26.2191 5.24442 
712 1 26.2373 24.4676 5.23782 
1109 2 24.4601 24.4702 6.97079 
1110 2 26.2213 26.215 6.96751 
715 2 27.9648 26.2145 5.23214 
716 2 29.7177 24.463 5.23435 
1113 2 27.9798 24.4556 6.99162 
1114 2 29.7141 26.2038 6.97578 
683 2 34.9234 26.1895 5.23594 
719 1 31.4686 26.2218 5.23992 
720 1 33.1781 24.4489 5.24205 
1081 2 34.919 24.4473 6.98658 
1117 1 31.4503 24.4649 6.98592 
1118 2 33.1946 26.197 6.9918 
723 2 0.00822096 29.7025 5.24578 
724 2 1.73409 27.9434 5.23721 
727 1 3.4838 29.7065 5.24359 
1122 2 1.7409 29.706 6.98937 
1125 2 3.48905 27.9469 6.98193 
728 2 5.2329 27.9575 5.24304 
731 2 6.98626 29.6998 5.24895 
1126 2 5.24032 29.698 6.9777 
1129 2 6.98599 27.9552 7.00334 
732 2 8.74021 27.9817 5.23375 
735 2 10.4726 29.7203 5.24088 
1130 1 8.7295 29.7047 7.0115 
1133 2 10.4715 27.9672 7.00673 
736 2 12.2273 27.9755 5.23468 
739 2 13.9868 29.7157 5.24571 
1134 2 12.2129 29.7167 6.97863 
1137 2 13.9742 27.9557 6.98728 
740 2 15.7289 27.9663 5.25207 
743 1 17.4661 29.7113 5.23291 
744 1 19.2207 27.9499 5.24255 
1138 2 15.7475 29.707 6.99331 
1141 2 17.4835 27.9539 6.99587 
1142 1 19.1982 29.7013 6.97545 
747 1 20.966 29.7256 5.24151 
748 1 22.7063 27.9636 5.23876 
1145 1 20.962 27.975 6.98244 
1146 1 22.7265 29.7091 6.9746 
751 2 24.4578 29.6974 5.23439 
752 1 26.2212 27.97 5.23667 
1149 2 24.4574 27.9648 6.97303 
1150 2 26.2057 29.7119 6.99228 
755 2 27.9685 29.7105 5.24309 
756 2 29.7209 27.9691 5.24919 
1153 2 27.9676 27.96 6.98912 
1154 2 29.7173 29.7229 7.00564 
759 2 31.4598 29.7072 5.24576 
760 1 33.2098 27.9615 5.24453 
1121 2 34.9422 27.9561 6.99641 
1157 2 31.4694 27.9518 7.00195 
1158 2 33.2067 29.6989 6.98862 
764 2 1.74552 31.4521 5.24744 
767 2 3.4894 33.1984 5.23584 
1162 2 1.73236 33.2117 6.99498 
1165 2 3.4942 31.4609 6.97713 
768 2 5.2354 31.457 5.24676 
771 2 6.98546 33.2056 5.248 
1166 2 5.24317 33.2135 6.99415 
1169 1 6.98268 31.4467 6.98913 
412 2 8.72549 34.9393 5.25812 
772 1 8.72881 31.4486 5.2508 
775 2 10.4927 33.1905 5.24778 
813 1 10.4908 34.9385 6.98324 
1170 2 8.73547 33.2003 6.99848 
1173 2 10.4643 31.4616 6.99574 
416 2 12.2374 34.9348 5.25362 
776 1 12.2247 31.4571 5.24314 
779 1 13.9744 33.1923 5.24607 
817 2 13.959 34.9418 6.99567 
1174 1 12.2326 33.1864 6.99484 
1177 2 13.9752 31.459 6.9837 
780 1 15.7267 31.454 5.24601 
783 2 17.4479 33.2017 5.26516 
784 2 19.2003 31.4476 5.25096 
1178 2 15.7154 33.2018 7.00378 
1181 2 17.479 31.4509 6.99845 
1182 1 19.2119 33.2019 6.98201 
787 2 20.9617 33.2029 5.23827 
788 2 22.7157 31.4514 5.24166 
825 2 20.9738 34.9408 6.97919 
1185 2 20.9527 31.4402 6.98741 
1186 2 22.7039 33.1992 6.9938 
791 2 24.4748 33.2103 5.23853 
792 2 26.2279 31.4574 5.24273 
1189 2 24.4637 31.4597 6.9883 
1190 2 26.2319 33.218 6.98083 
795 2 27.9825 33.2154 5.24148 
796 1 29.7136 31.4581 5.23302 
1193 2 27.978 31.4652 6.99386 
1194 1 29.7144 33.1959 6.99217 
763 2 34.9291 33.2073 5.24183 
799 1 31.4596 33.1917 5.23437 
800 2 33.1956 31.451 5.22866 
1161 1 34.9323 31.4472 6.99431 
1197 2 31.4554 31.4555 6.9817 
1198 2 33.1946 33.2102 6.97447 
803 1 0.00425754 1.74455 8.72351 
804 1 1.73992 0.000509502 8.73146 
807 2 3.49893 1.74915 8.73476 
844 2 1.73772 3.48998 8.7392 
1201 2 0.00748122 0.0210515 10.4631 
1202 1 1.74088 1.76088 10.4683 
1205 2 3.48295 0.0146042 10.4682 
1241 1 0.000682106 3.49569 10.477 
1245 1 3.50331 3.48264 10.4941 
808 1 5.23531 0.00592542 8.72793 
811 1 6.97101 1.74016 8.72661 
848 1 5.24559 3.49835 8.73619 
1206 1 5.24037 1.74169 10.4822 
1209 2 6.98271 0.0109324 10.477 
1249 1 6.9775 3.47637 10.4819 
812 1 8.74499 0.0056692 8.72597 
815 2 10.4728 1.74346 8.7341 
852 2 8.72825 3.48795 8.7509 
1210 2 8.72046 1.73995 10.4786 
1253 1 10.4852 3.46987 10.4774 
819 2 13.9824 1.73389 8.72963 
856 1 12.2298 3.48807 8.72853 
1214 2 12.2308 1.74182 10.4775 
1257 2 13.969 3.49992 10.4761 
823 1 17.4801 1.75676 8.75872 
860 2 15.715 3.49001 8.75918 
864 2 19.238 3.48486 8.75435 
1218 2 15.736 1.73113 10.491 
1222 1 19.2301 1.74291 10.5007 
1261 2 17.4753 3.48583 10.5007 
827 2 20.9662 1.73626 8.73024 
868 1 22.7003 3.49675 8.73215 
1226 2 22.7155 1.75801 10.4704 
1265 2 20.984 3.49137 10.4978 
831 2 24.452 1.74336 8.73368 
832 1 26.2209 0.01728 8.73766 
872 2 26.189 3.50351 8.72654 
1229 2 24.4632 0.01282 10.4838 
1230 1 26.1939 1.76542 10.4719 
1269 1 24.449 3.5006 10.4637 
835 2 27.9612 1.75222 8.73168 
836 2 29.7089 0.00508517 8.72344 
876 2 29.7169 3.51165 8.72849 
1233 2 27.9495 0.028376 10.4799 
1234 1 29.6989 1.75749 10.478 
1273 2 27.9488 3.50372 10.4769 
839 2 31.4553 1.76903 8.736 
840 1 33.186 0.00989164 8.73768 
880 1 33.194 3.5145 8.73717 
1237 2 31.4535 0.0347804 10.4807 
1238 1 33.2062 1.76779 10.4636 
1277 1 31.4437 3.48697 10.4812 
843 1 0.00876459 5.24671 8.73232 
847 2 3.4984 5.23336 8.74505 
884 2 1.75954 6.97874 8.73261 
1242 2 1.74844 5.22169 10.4988 
1285 2 3.50475 6.97633 10.4772 
851 1 6.97478 5.24369 8.75581 
888 1 5.2417 6.98194 8.73801 
1246 1 5.24172 5.24394 10.4871 
1289 1 6.98605 6.9927 10.5011 
855 1 10.4914 5.23637 8.74492 
892 2 8.72904 6.96593 8.74293 
1250 1 8.74001 5.22895 10.4898 