ITEM: TIMESTEP
1000
ITEM: NUMBER OF ATOMS
4001
ITEM: BOX BOUNDS pp pp pp
0.0000000000000000e+00 3.4945000000000000e+01
0.0000000000000000e+00 3.4945000000000000e+01
0.0000000000000000e+00 3.4945000000000000e+01
ITEM: ATOMS id type x y z 
2 1 1.72685 1.75168 0.00648173 
4 2 1.72899 0.00869898 1.73973 
7 1 3.49146 1.73652 1.74157 
41 1 0.00876431 3.50705 0.00241957 
44 2 1.7502 3.49045 1.74432 
45 2 3.4861 3.49155 0.0129295 
402 2 1.75205 1.75164 3.4769 
445 2 3.50279 3.492 3.47989 
6 2 5.23374 1.74337 0.00531417 
8 2 5.25195 0.0103556 1.75453 
11 1 6.99657 1.74834 1.74319 
48 2 5.24024 3.48291 1.7437 
406 1 5.24234 1.74652 3.49222 
409 2 6.99535 0.0209838 3.50199 
449 1 6.97266 3.48391 3.49794 
10 2 8.75267 1.75091 0.00629745 
12 1 8.7465 0.00864216 1.74617 
15 2 10.49 1.73977 1.74472 
52 2 8.74031 3.48789 1.75807 
53 1 10.4888 3.49354 0.00636315 
410 2 8.72804 1.75168 3.50448 
413 2 10.4753 0.00698734 3.50449 
453 1 10.4852 3.4795 3.49868 
19 1 13.974 1.73882 1.74792 
56 2 12.2327 3.4764 1.75689 
57 2 13.9649 3.47911 0.0158194 
414 1 12.2291 1.74556 3.50118 
417 2 13.9782 0.0117219 3.50559 
457 1 13.9892 3.47144 3.49821 
18 2 15.7172 1.74984 0.010074 
23 2 17.4713 1.74134 1.76166 
24 1 19.2072 0.00607323 1.75745 
60 2 15.7137 3.49123 1.75402 
64 2 19.2121 3.4701 1.74365 
418 1 15.7201 1.73272 3.50952 
421 2 17.4732 0.00363851 3.51559 
422 1 19.2158 1.74325 3.50536 
461 2 17.4655 3.48467 3.50516 
27 1 20.9544 1.73262 1.72936 
28 1 22.7061 0.00265755 1.75095 
68 2 22.7171 3.46425 1.73911 
425 1 20.9608 0.0154604 3.4986 
426 1 22.7098 1.74505 3.49425 
465 2 20.9575 3.47212 3.499 
29 2 24.4651 0.0107972 0.00198001 
31 1 24.4694 1.74 1.74261 
32 1 26.2199 0.00268823 1.75672 
72 1 26.2085 3.50363 1.74679 
429 1 24.4759 0.0166401 3.48933 
430 1 26.2185 1.76465 3.49344 
469 2 24.454 3.48271 3.48665 
34 2 29.6933 1.75186 0.00136725 
35 1 27.9568 1.74433 1.74308 
73 1 27.9578 3.47839 0.000636519 
76 1 29.7082 3.49192 1.75612 
433 1 27.9642 0.00661704 3.49186 
434 1 29.7214 1.75628 3.48474 
473 2 27.9671 3.4867 3.48323 
36 1 29.7188 0.000523035 1.74791 
3 1 34.9337 1.75383 1.74501 
39 1 31.453 1.76048 1.71821 
80 2 33.1879 3.50152 1.72848 
401 2 34.9324 0.00252133 3.48488 
438 2 33.1734 1.74208 3.47863 
441 2 34.9305 3.49479 3.48702 
477 1 31.457 3.49748 3.49132 
43 2 0.0108629 5.24327 1.73274 
47 1 3.50728 5.25357 1.7483 
84 2 1.75893 6.99163 1.74129 
442 2 1.75036 5.23821 3.48454 
481 2 0.00744255 6.99738 3.48848 
485 2 3.50546 6.98421 3.50216 
51 2 6.98305 5.22116 1.75249 
88 2 5.26117 6.97877 1.74817 
446 2 5.24556 5.23599 3.4873 
489 2 6.99229 6.97973 3.51752 
50 2 8.73238 5.23646 0.0112524 
55 2 10.497 5.23503 1.76541 
92 1 8.73424 6.97164 1.76489 
450 2 8.73933 5.22356 3.49805 
493 2 10.4934 6.97881 3.50901 
54 2 12.2393 5.22317 0.00473346 
59 1 13.9771 5.23339 1.74431 
96 2 12.2441 6.99424 1.73653 
97 2 13.9931 6.97486 0.0112368 
454 2 12.2502 5.21874 3.50661 
497 1 13.9807 6.99165 3.48631 
58 1 15.7108 5.23886 0.0077584 
63 2 17.4559 5.23533 1.74498 
100 1 15.7256 6.97572 1.76363 
104 2 19.1921 6.97989 1.73099 
458 2 15.7149 5.22842 3.50197 
462 1 19.2163 5.23609 3.4865 
501 2 17.4679 6.97854 3.49608 
67 2 20.9537 5.22226 1.75157 
108 2 22.7103 6.98527 1.7384 
466 2 22.6884 5.22669 3.49249 
505 2 20.9456 6.99258 3.48203 
71 2 24.4559 5.2311 1.74406 
112 2 26.2246 6.9724 1.74357 
470 2 26.2137 5.23293 3.50107 
509 2 24.4699 6.9913 3.47822 
74 1 29.7077 5.23427 0.0050667 
75 2 27.9707 5.23806 1.74735 
116 1 29.6991 6.99583 1.75217 
474 2 29.7036 5.23501 3.49299 
513 1 27.9539 6.98633 3.49674 
79 2 31.4409 5.24512 1.74879 
120 2 33.189 6.99998 1.73041 
478 2 33.1965 5.25088 3.49029 
517 2 31.4394 6.98859 3.49426 
83 2 0.000696054 8.73509 1.73597 
87 2 3.52034 8.71927 1.74394 
124 2 1.7444 10.4801 1.73859 
482 2 1.77038 8.74494 3.50022 
521 1 0.00897803 10.4657 3.49058 
525 2 3.50562 10.4841 3.50077 
91 2 6.98827 8.71736 1.75737 
128 2 5.24678 10.4783 1.74462 
129 2 7.00002 10.4816 0.0114372 
486 1 5.25203 8.71535 3.5048 
529 1 6.97416 10.4675 3.47932 
95 2 10.4897 8.73154 1.73474 
132 2 8.75438 10.4624 1.74795 
490 2 8.72197 8.73371 3.50223 
533 1 10.4815 10.4595 3.49289 
99 1 13.9847 8.73881 1.73456 
136 1 12.222 10.4793 1.75063 
137 2 13.9577 10.4824 0.00462223 
494 2 12.2413 8.73251 3.49112 
537 2 13.9647 10.475 3.50801 
103 2 17.4502 8.72873 1.73772 
140 2 15.7064 10.483 1.75485 
144 2 19.2274 10.4763 1.73683 
498 2 15.7216 8.734 3.50514 
502 1 19.2057 8.73438 3.47246 
541 2 17.4798 10.4927 3.49015 
107 2 20.9551 8.74168 1.7292 
148 1 22.7021 10.471 1.7396 
506 2 22.6985 8.73692 3.48318 
545 1 20.9601 10.4638 3.49908 
111 2 24.4661 8.72774 1.73077 
152 2 26.1989 10.4766 1.7356 
510 2 26.2228 8.73587 3.50202 
549 2 24.4493 10.4722 3.47213 
114 1 29.7001 8.72866 0.00689036 
115 1 27.947 8.73485 1.72494 
156 2 29.7143 10.4631 1.73257 
514 2 29.6872 8.73749 3.46606 
553 1 27.951 10.4878 3.49198 
119 1 31.4634 8.73754 1.7344 
160 1 33.2152 10.4782 1.74006 
518 2 33.2024 8.73804 3.48399 
557 2 31.4677 10.4702 3.48357 
123 2 0.00269562 12.2156 1.74438 
127 2 3.50081 12.2401 1.73557 
161 2 0.00451907 13.9588 0.0100425 
164 2 1.73885 13.9774 1.75078 
522 1 1.7337 12.2257 3.49546 
565 2 3.49178 13.9678 3.49575 
131 2 6.99084 12.2394 1.75912 
168 2 5.24626 13.9801 1.74766 
169 2 6.9971 13.9949 0.014018 
526 1 5.24579 12.2295 3.50339 
569 1 6.97361 13.9809 3.49883 
135 1 10.4716 12.2202 1.75269 
172 2 8.74305 13.9815 1.76291 
530 2 8.72483 12.2256 3.50206 
573 1 10.4855 13.9825 3.50029 
139 2 13.9672 12.2308 1.7552 
176 2 12.2297 13.965 1.75176 
177 2 13.9768 13.9901 0.0154894 
534 2 12.2132 12.2318 3.49609 
577 1 13.9773 13.9691 3.50746 
143 2 17.4667 12.2437 1.74302 
180 1 15.7253 13.9793 1.74507 
184 2 19.2007 13.9955 1.74489 
538 2 15.7269 12.2398 3.50687 
542 2 19.2332 12.2284 3.49011 
581 1 17.4713 13.98 3.50262 
146 2 22.7172 12.2332 0.0170875 
147 2 20.9687 12.2167 1.76333 
185 2 20.9513 13.9689 0.0167667 
188 2 22.7076 13.9908 1.76521 
546 1 22.7058 12.218 3.49606 
585 1 20.9715 13.9901 3.4972 
150 1 26.2029 12.2138 0.00680625 
151 2 24.45 12.221 1.74609 
189 2 24.4705 13.9775 0.00467397 
192 2 26.2106 13.9905 1.74974 
550 2 26.1988 12.2377 3.48662 
589 2 24.4445 13.9896 3.50289 
154 1 29.707 12.2227 0.013585 
155 2 27.9544 12.2157 1.74655 
193 1 27.9503 13.9719 0.0074247 
196 2 29.7151 13.9723 1.75238 
554 2 29.7058 12.2252 3.48205 
593 2 27.9616 13.9631 3.49488 
158 1 33.2023 12.216 0.00641201 
159 2 31.4668 12.2088 1.74051 
197 2 31.4458 13.9551 0.00442694 
200 1 33.2033 13.9662 1.73481 
558 2 33.224 12.2125 3.48795 
561 1 34.9417 13.9714 3.48449 
597 2 31.4709 13.9712 3.48842 
162 1 1.74162 15.7339 0.0102854 
163 2 0.00354935 15.7211 1.75358 
167 1 3.48846 15.7131 1.7588 
201 2 0.0034377 17.4758 0.000998919 
202 2 1.74373 19.2075 0.00485648 
203 2 0.00458347 19.2278 1.75652 
204 1 1.75162 17.4624 1.74611 
205 1 3.49228 17.4686 0.00520903 
207 1 3.4715 19.2264 1.74978 
562 2 1.74515 15.7077 3.48495 
601 2 0.00576248 17.4702 3.5056 
602 2 1.73923 19.2313 3.48958 
605 1 3.47993 17.4787 3.49801 
166 1 5.24685 15.7413 0.011364 
171 1 6.98894 15.7276 1.7692 
206 2 5.22523 19.2124 0.00142554 
208 2 5.21276 17.4797 1.76786 
209 2 6.97556 17.4699 0.00976684 
211 2 6.96648 19.2239 1.75323 
566 2 5.2446 15.7311 3.49118 
606 1 5.21033 19.2375 3.4944 
609 1 6.98091 17.4944 3.49224 
175 2 10.4793 15.7077 1.73826 
210 2 8.73165 19.2183 0.0158605 
212 2 8.72886 17.4698 1.76029 
215 2 10.4823 19.2189 1.76388 
570 1 8.73812 15.7219 3.49906 
610 1 8.72163 19.2245 3.4927 
613 2 10.4783 17.4693 3.49268 
179 1 13.9756 15.7254 1.75586 
214 2 12.2396 19.2218 0.0160374 
216 2 12.2495 17.4711 1.75654 
219 2 13.9945 19.2014 1.7621 
574 2 12.2284 15.7228 3.5001 
614 1 12.2347 19.2191 3.4986 
617 1 13.9742 17.4758 3.51082 
178 2 15.7226 15.7433 0.0074663 
183 2 17.4592 15.7345 1.74858 
220 1 15.7142 17.4782 1.7465 
222 2 19.2126 19.2175 0.00227566 
223 1 17.4659 19.2135 1.74006 
224 1 19.2128 17.474 1.75248 
578 2 15.7128 15.719 3.49286 
582 2 19.2251 15.7344 3.50987 
618 1 15.7388 19.2134 3.50712 
621 2 17.4632 17.474 3.48994 
622 2 19.2124 19.2132 3.48665 
187 2 20.9704 15.746 1.76233 
225 2 20.9666 17.4783 0.0119615 
226 2 22.7388 19.2214 0.00550961 
227 1 20.9721 19.2114 1.75055 
228 1 22.7249 17.4711 1.74523 
586 1 22.7088 15.7401 3.50498 
625 2 20.9796 17.4809 3.5042 
626 2 22.7361 19.2108 3.49922 
191 2 24.4654 15.7432 1.74556 
230 1 26.2115 19.2192 0.0050325 
231 1 24.4788 19.2077 1.75744 
232 1 26.2259 17.4661 1.75336 
590 1 26.2291 15.7147 3.51325 
629 1 24.4812 17.464 3.49171 
630 1 26.2208 19.2242 3.50314 
195 2 27.9558 15.7316 1.74256 
235 1 27.9599 19.2131 1.74358 
236 2 29.6978 17.4711 1.75539 
594 2 29.7069 15.7197 3.50893 
633 2 27.9546 17.4771 3.49733 
634 2 29.7006 19.2235 3.50412 
199 2 31.4609 15.7205 1.74299 
239 2 31.4427 19.2263 1.74937 
240 2 33.204 17.4728 1.74248 
598 2 33.2067 15.7291 3.49929 
637 2 31.4585 17.4744 3.50397 
638 1 33.2052 19.2102 3.48929 
242 2 1.72266 22.7254 0.00189796 
244 1 1.73046 20.9715 1.73611 
247 2 3.49491 22.7034 1.75267 
642 2 1.72945 22.7262 3.4866 
645 2 3.47443 20.9768 3.49054 
248 1 5.2422 20.9627 1.7313 
251 1 6.98875 22.7119 1.7395 
646 2 5.25283 22.7044 3.49095 
649 2 6.97908 20.9679 3.49811 
250 2 8.73757 22.7168 0.017111 
252 2 8.71973 20.9785 1.7596 
255 2 10.4655 22.7225 1.75222 
650 1 8.72112 22.7254 3.49172 
653 2 10.4717 20.9594 3.49795 
254 2 12.2352 22.7211 0.0117316 
256 2 12.2329 20.9683 1.75663 
257 2 13.9922 20.9592 0.0116868 
259 2 13.9807 22.7228 1.77241 
654 2 12.2199 22.7167 3.49888 
657 2 13.9898 20.9542 3.50297 
258 2 15.7338 22.7119 0.00244813 
260 2 15.7432 20.9477 1.74493 
263 2 17.48 22.7163 1.75582 
264 2 19.2181 20.9463 1.74694 
658 2 15.7381 22.7004 3.51469 
661 1 17.4757 20.9554 3.50392 
662 2 19.2304 22.7143 3.4967 
265 2 20.9722 20.9781 0.0140793 
266 1 22.7081 22.7089 0.0128109 
267 2 20.9808 22.714 1.75456 
268 2 22.733 20.9565 1.75575 
665 1 20.9802 20.9439 3.49456 
666 1 22.7102 22.7249 3.50533 
269 1 24.48 20.9746 0.00417709 
270 1 26.2219 22.7251 0.0152122 
271 1 24.4593 22.7251 1.76376 
272 1 26.2178 20.977 1.76335 
669 2 24.4594 20.9732 3.48626 
670 2 26.223 22.7244 3.49161 
273 2 27.9419 20.9612 0.00406863 
274 2 29.7136 22.716 0.00424315 
275 2 27.97 22.7151 1.75996 
276 2 29.7078 20.9706 1.74072 
673 2 27.9667 20.9602 3.50116 
674 1 29.7157 22.7083 3.49487 
243 2 34.9217 22.7179 1.73681 
279 1 31.4601 22.7107 1.74559 
280 1 33.1855 20.9636 1.74016 
641 1 34.9364 20.9681 3.48955 
677 2 31.462 20.9626 3.49678 
678 2 33.1859 22.7101 3.48368 
284 1 1.74812 24.47 1.74925 
285 2 3.48449 24.4669 0.000680301 
287 2 3.50149 26.2031 1.75412 
682 1 1.7344 26.1914 3.4925 
685 1 3.50799 24.4545 3.49343 
286 1 5.2459 26.188 0.00730917 
288 2 5.24846 24.4517 1.74419 
289 2 6.98843 24.4715 0.012642 
291 1 6.98185 26.2267 1.74878 
686 2 5.24136 26.2173 3.49307 
689 1 6.99099 24.4708 3.48548 
290 2 8.71868 26.2357 0.012883 
292 1 8.72979 24.4728 1.74787 
295 2 10.4744 26.229 1.74675 
690 2 8.73474 26.2254 3.4813 
693 2 10.4692 24.4702 3.49322 
294 2 12.246 26.2216 0.00702632 
296 2 12.2167 24.4819 1.75425 
297 2 13.9932 24.4761 0.0102021 
299 2 13.987 26.2226 1.76422 
694 1 12.2312 26.2124 3.50009 
697 2 13.9832 24.4734 3.52162 
298 1 15.7358 26.204 0.00352091 
300 2 15.7433 24.4655 1.75117 
303 1 17.4691 26.2148 1.73622 
304 2 19.2155 24.4821 1.74057 
698 2 15.7158 26.2156 3.49953 
701 1 17.4638 24.4716 3.51287 
702 2 19.2107 26.2111 3.50573 
306 1 22.7086 26.2302 0.00635724 
307 2 20.9598 26.2233 1.75244 
308 2 22.7142 24.4662 1.7532 
705 1 20.974 24.4811 3.49229 
706 2 22.7342 26.2022 3.49558 
309 2 24.4448 24.455 0.0121527 
310 2 26.2027 26.2027 0.00428539 
311 2 24.4777 26.2065 1.74952 
312 2 26.2216 24.4621 1.7638 
709 1 24.4895 24.4764 3.5011 
710 1 26.2179 26.2277 3.50254 
313 2 27.9659 24.4715 0.00288064 
314 2 29.7162 26.2268 0.000964774 
315 1 27.9643 26.2179 1.74691 
316 2 29.7196 24.4655 1.75954 
713 2 27.9689 24.4757 3.49736 
714 1 29.7192 26.2245 3.49924 
283 2 34.9332 26.1918 1.73082 
319 2 31.4462 26.2113 1.73842 
320 1 33.1746 24.4618 1.72952 
681 1 34.9135 24.4692 3.48209 
717 2 31.4568 24.4656 3.49955 
718 2 33.1892 26.2191 3.48259 
324 2 1.73845 27.9352 1.74242 
327 2 3.49448 29.6967 1.75518 
722 2 1.7519 29.6941 3.49732 
725 2 3.48253 27.957 3.49185 
326 1 5.22813 29.706 0.0035529 
328 2 5.24101 27.9609 1.73896 
331 2 6.98121 29.6984 1.74236 
726 1 5.22734 29.709 3.50776 
729 2 6.98463 27.9642 3.4896 
332 1 8.72137 27.976 1.7418 
333 2 10.4957 27.9812 0.0124859 
335 2 10.48 29.7128 1.75166 
730 1 8.73006 29.7113 3.49754 
733 2 10.5006 27.9762 3.47698 
334 2 12.2361 29.7212 0.00957586 
336 1 12.252 27.9672 1.74862 
339 2 13.9789 29.7105 1.74272 
734 1 12.2471 29.7178 3.49747 
737 1 13.9756 27.9674 3.50945 
338 1 15.7222 29.7092 0.0126745 
340 2 15.7226 27.9577 1.73374 
342 1 19.2313 29.7044 0.00710663 
343 2 17.487 29.6938 1.75794 
344 1 19.2171 27.957 1.75095 
738 2 15.725 29.7104 3.49439 
741 2 17.4653 27.9517 3.49146 
742 2 19.221 29.7064 3.50038 
345 2 20.9605 27.9731 0.00664327 
346 2 22.6967 29.7152 0.00490812 
347 1 20.9668 29.7195 1.74928 
348 2 22.7038 27.9673 1.76245 
745 2 20.9632 27.958 3.50965 
746 2 22.7071 29.7176 3.50308 
349 2 24.4594 27.9576 0.00471037 
351 2 24.4613 29.7138 1.75134 
352 2 26.2234 27.9672 1.74841 
749 2 24.469 27.9503 3.50388 
750 2 26.2189 29.7175 3.49173 
353 2 27.9654 27.967 0.00281747 
355 1 27.96 29.7236 1.74888 
356 2 29.7076 27.9687 1.74825 
753 2 27.9658 27.963 3.48891 
754 2 29.7158 29.7199 3.48295 
323 2 34.9404 29.7068 1.74666 
357 1 31.4511 27.9679 0.0117111 
359 2 31.4638 29.7148 1.74048 
360 1 33.1964 27.9588 1.73399 
721 2 34.9373 27.9427 3.4882 
757 2 31.467 27.9713 3.49112 
758 1 33.2095 29.7043 3.50452 
363 1 0.00695524 33.1806 1.74003 
364 2 1.73911 31.4481 1.74644 
365 2 3.49724 31.4505 0.0120763 
367 2 3.4798 33.2114 1.74439 
405 2 3.49184 34.9408 3.49973 
762 2 1.73355 33.1978 3.49282 
765 1 3.48772 31.4547 3.486 
366 1 5.24254 33.2125 0.010702 
368 2 5.23777 31.4547 1.75024 
369 2 6.98586 31.4507 0.00340852 
371 2 7.00203 33.219 1.74705 
766 2 5.23729 33.1975 3.48079 
769 2 6.97578 31.4433 3.51409 
13 2 10.4843 34.9366 0.00730895 
370 2 8.74099 33.1841 0.0125863 
372 2 8.73189 31.443 1.76049 
373 1 10.4734 31.4536 0.00677864 
375 1 10.4708 33.1833 1.76147 
770 2 8.73501 33.188 3.49649 
773 2 10.4807 31.4437 3.49979 
16 2 12.2238 34.9346 1.75289 
17 2 13.9743 34.9269 0.000388506 
374 1 12.2316 33.1969 0.0109882 
376 2 12.2297 31.457 1.75348 
379 1 13.9869 33.185 1.76185 
774 2 12.2343 33.1937 3.49784 
777 2 13.9881 31.4485 3.50297 
20 2 15.7271 34.9426 1.76253 
380 2 15.7295 31.453 1.76067 
381 2 17.4763 31.4339 0.0115078 
383 2 17.4644 33.2004 1.75227 
384 2 19.2172 31.4571 1.73756 
778 2 15.7227 33.2089 3.51736 
781 1 17.475 31.4608 3.50774 
782 2 19.2094 33.2153 3.4981 
25 2 20.9585 34.9374 0.000832518 
385 1 20.9667 31.4626 0.000458036 
387 2 20.9587 33.2126 1.74311 
388 2 22.7085 31.4735 1.7451 
785 2 20.9543 31.4711 3.48735 
786 2 22.7246 33.2268 3.48961 
391 2 24.4688 33.223 1.74633 
392 2 26.2158 31.474 1.73813 
789 2 24.4678 31.4737 3.49529 
790 1 26.2163 33.1977 3.5055 
395 2 27.9736 33.2139 1.73845 
396 2 29.7182 31.4632 1.73666 
793 2 27.9762 31.4712 3.49198 
794 1 29.7232 33.2006 3.48944 
1 1 34.9392 34.9348 0.00636845 
37 2 31.4627 34.9415 0.00108835 
40 2 33.1944 34.9293 1.73791 
398 2 33.1992 33.1735 0.00168986 
399 1 31.4607 33.1785 1.7369 
400 1 33.2106 31.4481 1.75383 
437 1 31.4509 34.9453 3.47995 
761 2 34.9435 31.4542 3.50214 
797 1 31.4626 31.4489 3.48765 
798 1 33.2086 33.2065 3.48893 
404 2 1.74036 0.014583 5.25659 
407 2 3.50288 1.74779 5.22622 
444 1 1.74358 3.49116 5.22402 
802 2 1.74738 1.74694 6.99008 
805 1 3.49899 0.0108698 6.98544 
845 2 3.48108 3.49248 6.99136 
408 1 5.23993 0.00144128 5.22447 
411 1 6.98341 1.73997 5.25362 
448 2 5.23569 3.48615 5.24809 
806 1 5.23359 1.7443 6.98136 
809 1 6.98444 0.00447033 6.99317 
849 2 6.98369 3.48514 6.99874 
415 2 10.4885 1.7522 5.25364 
452 2 8.73334 3.48675 5.23807 
810 1 8.73518 1.75272 6.99152 
853 2 10.4928 3.49331 6.99656 
419 1 13.9617 1.74137 5.26135 
456 2 12.242 3.48534 5.2533 
814 1 12.2248 1.74471 7.00743 
857 1 13.9884 3.46946 7.00224 
420 1 15.7156 0.0162361 5.26404 
423 1 17.476 1.75386 5.25071 
424 2 19.2108 0.00745758 5.24077 
460 2 15.7124 3.47421 5.25233 
464 2 19.2348 3.49324 5.24367 
818 2 15.7296 1.75095 6.99336 
821 2 17.4769 0.00883543 7.00496 
822 2 19.2215 1.75014 6.9952 
861 2 17.4656 3.49894 7.00754 
427 1 20.9753 1.73586 5.25361 
428 2 22.7276 0.0176499 5.23753 
468 1 22.6979 3.49312 5.23038 
826 1 22.724 1.74444 6.99572 
865 2 20.98 3.49095 6.98179 
431 2 24.4603 1.75487 5.22956 
432 1 26.2213 0.00944263 5.23718 
472 2 26.2023 3.49945 5.23686 
829 2 24.4646 0.00125905 6.98776 
830 2 26.2127 1.74873 6.98234 
869 2 24.4397 3.50299 6.99239 
435 1 27.9583 1.74995 5.23786 
436 2 29.7187 0.00445968 5.22741 
476 2 29.7089 3.4914 5.23371 
833 2 27.9679 0.0130319 6.97924 
834 1 29.7172 1.75717 6.98217 
873 2 27.967 3.50055 6.97896 
403 2 34.9327 1.7514 5.23818 
439 1 31.4598 1.7551 5.24582 
440 1 33.1872 0.0089768 5.22198 
480 2 33.2035 3.48848 5.24504 
801 1 34.9267 0.00898063 6.9854 
837 2 31.4602 0.00313548 6.9692 
838 2 33.1906 1.74884 7.00086 
841 1 34.9409 3.49276 6.9846 
877 2 31.4566 3.5161 6.988 
443 2 0.000815372 5.23341 5.2449 
447 2 3.49318 5.2328 5.22863 
484 2 1.75815 6.97757 5.24196 
842 2 1.74318 5.2365 6.98003 
881 2 0.00293129 6.97715 6.98657 
885 1 3.4906 6.97117 6.98298 
451 2 6.99475 5.22874 5.2534 
488 1 5.24415 6.97635 5.24181 
846 2 5.23892 5.24459 7.00284 
889 1 6.99131 6.96564 6.98825 
455 1 10.4823 5.22884 5.24187 
492 2 8.73085 6.98529 5.24596 
850 2 8.74163 5.22534 7.00808 
893 1 10.4742 6.96998 6.99066 
459 1 13.987 5.23465 5.25964 
496 2 12.2411 6.97767 5.25859 
854 2 12.2381 5.23017 6.99488 
897 1 13.9797 6.98641 6.99783 
463 2 17.4788 5.22578 5.26204 
500 2 15.7128 6.98994 5.25312 
504 2 19.2154 6.98309 5.24289 
858 1 15.7128 5.23134 7.00066 
862 1 19.2344 5.22562 7.00388 
901 1 17.4887 6.98367 6.98956 
467 1 20.9575 5.25242 5.24085 
508 2 22.7214 6.97574 5.24255 
866 2 22.6941 5.23989 6.98783 
905 2 20.9533 6.99158 6.98924 
471 2 24.4544 5.25227 5.23519 
512 1 26.2119 7.00029 5.22768 
870 2 26.2186 5.26386 6.97876 
909 2 24.4683 7.00425 6.98696 
475 1 27.9556 5.23518 5.23416 
516 2 29.6902 6.98342 5.23554 
874 1 29.7062 5.2579 6.97927 
913 2 27.9604 6.99868 6.9779 
479 2 31.4455 5.23932 5.24758 
520 2 33.1956 7.00319 5.23898 
878 2 33.1917 5.24967 6.9962 
917 1 31.451 6.99972 6.97777 
483 2 0.00817371 8.73809 5.23846 
487 2 3.50882 8.72243 5.25894 
524 2 1.73742 10.483 5.24398 
882 1 1.73793 8.72134 6.99047 
925 1 3.49003 10.4752 6.98217 
491 1 6.98228 8.73949 5.25236 
528 2 5.25405 10.4675 5.25692 
886 1 5.24901 8.71189 6.99672 
929 1 6.97755 10.4873 7.00213 
495 2 10.4789 8.72998 5.25577 
532 1 8.72437 10.4826 5.24609 
890 2 8.72234 8.74255 6.98538 
933 1 10.4844 10.4807 7.00269 
499 1 13.9736 8.74162 5.25463 
536 2 12.223 10.4837 5.24428 
894 2 12.2378 8.73214 6.99853 
937 1 13.9797 10.4951 6.99242 
503 2 17.4697 8.72958 5.24976 
540 1 15.7324 10.4713 5.24831 
544 2 19.2112 10.472 5.23153 
898 1 15.7098 8.73489 6.98462 
902 1 19.2343 8.74725 6.98712 
941 2 17.4668 10.4638 6.98637 
507 2 20.9651 8.72904 5.23022 
548 2 22.7109 10.4859 5.21988 
906 2 22.7129 8.73095 6.99061 
945 2 20.9673 10.4808 6.96744 
511 1 24.4442 8.73424 5.22509 
552 2 26.2135 10.4784 5.22979 
910 1 26.2143 8.73928 6.9627 
949 2 24.4602 10.4699 6.98812 
515 1 27.972 8.73543 5.23551 
556 2 29.7096 10.4936 5.22369 
914 2 29.7013 8.72796 6.99478 
953 2 27.9749 10.4734 6.9651 
519 2 31.4364 8.73984 5.2304 
560 1 33.2026 10.4643 5.24096 
918 2 33.2001 8.74338 6.99223 
921 2 34.9409 10.4822 6.98551 
957 1 31.4435 10.4749 6.98203 
527 2 3.48706 12.2227 5.23932 
564 1 1.74652 13.962 5.23567 
922 2 1.74387 12.2257 6.97656 
965 2 3.48222 13.9693 6.99472 
531 2 6.98165 12.2191 5.24924 
568 2 5.22895 13.9829 5.25163 
926 1 5.23415 12.2352 6.99669 
969 1 6.97858 13.9878 6.98962 
535 2 10.4747 12.2137 5.23073 
572 2 8.73293 13.9669 5.23598 
930 1 8.74134 12.225 6.99068 
973 2 10.465 13.9663 6.9733 
539 2 13.9779 12.2258 5.25249 
576 1 12.2131 13.9801 5.24899 
934 2 12.2138 12.2241 6.99198 
977 2 13.9715 13.9623 6.97966 
543 2 17.4787 12.2425 5.24328 
580 1 15.729 13.9783 5.25796 
584 2 19.2241 13.9956 5.22992 
938 2 15.7279 12.2141 6.98626 
942 2 19.2248 12.2282 6.98484 
981 2 17.4784 13.9901 6.98267 
547 1 20.9564 12.2207 5.22492 
588 1 22.7022 13.9688 5.24119 
946 2 22.713 12.2229 6.96742 
985 2 20.9641 13.9925 6.96652 
551 2 24.4556 12.2206 5.24082 
592 1 26.2042 13.9608 5.23483 
950 2 26.2109 12.2179 6.98027 
989 2 24.4681 13.9731 6.98855 
555 1 27.9636 12.2395 5.23016 
596 1 29.7239 13.9593 5.23857 
954 2 29.718 12.2219 6.97613 
993 2 27.9577 13.9572 6.97386 
523 1 34.9426 12.2158 5.23808 
559 2 31.464 12.2142 5.23519 
600 2 33.2149 13.9695 5.23194 
958 1 33.1972 12.2196 6.97858 
961 1 34.9443 13.9732 6.97851 
997 2 31.473 13.9607 6.98709 
563 1 0.00597611 15.7153 5.23489 
567 2 3.4775 15.7247 5.22732 
604 2 1.73431 17.4731 5.23278 
607 2 3.48662 19.2383 5.22933 
962 2 1.73441 15.7113 6.98322 
1001 1 0.00189657 17.4735 6.99703 
1002 2 1.72988 19.2209 6.99312 
1005 2 3.47691 17.4663 6.96469 
571 2 6.97925 15.7331 5.2328 
608 1 5.2333 17.459 5.22817 
611 1 6.96738 19.217 5.23053 
966 1 5.21975 15.7315 6.98643 
1006 2 5.22946 19.2086 6.96117 
1009 2 6.97024 17.4577 6.97861 
575 2 10.4737 15.732 5.24074 
612 2 8.71621 17.4919 5.23448 
615 1 10.4818 19.2093 5.22731 
970 2 8.71187 15.7152 6.98273 
1010 2 8.72107 19.2209 6.98436 
1013 2 10.4662 17.4777 6.98695 
579 2 13.983 15.7104 5.24453 
616 2 12.2288 17.4692 5.24051 
619 2 13.9703 19.2282 5.23763 
974 2 12.2253 15.7234 6.98844 
1014 2 12.221 19.2214 6.97889 
1017 2 13.9898 17.4691 6.97982 
583 1 17.4626 15.7295 5.23376 
620 2 15.7346 17.4645 5.23584 
623 2 17.4752 19.2154 5.24284 
624 1 19.2097 17.4763 5.25133 
978 2 15.7385 15.7233 6.9988 
982 1 19.2192 15.7235 6.9743 
1018 2 15.7254 19.2172 6.99711 
1021 1 17.4687 17.4666 6.99126 
1022 2 19.2319 19.198 6.99919 
587 1 20.9768 15.7439 5.23466 
627 2 20.9813 19.2049 5.24179 
628 1 22.7315 17.4812 5.25379 
986 2 22.7047 15.739 6.97159 
1025 1 20.9675 17.4676 6.992 
1026 1 22.7236 19.2196 6.98946 
591 2 24.4543 15.719 5.2384 
631 2 24.4735 19.2156 5.23448 
632 2 26.2172 17.4561 5.22944 
990 2 26.2153 15.7076 6.98479 
1029 1 24.4838 17.4671 6.9818 
1030 2 26.2108 19.2178 6.97395 
595 2 27.9755 15.7052 5.24328 
635 1 27.9584 19.2105 5.24878 
636 1 29.7107 17.4779 5.24624 
994 2 29.7232 15.7145 6.98185 
1033 2 27.9557 17.4674 6.97612 
1034 2 29.7158 19.226 6.99081 
599 2 31.4623 15.7251 5.25352 
603 1 34.9415 19.2136 5.22843 
639 2 31.4631 19.2112 5.24955 
640 1 33.2096 17.4724 5.25642 
998 1 33.2123 15.717 6.97877 
1037 2 31.4686 17.4715 6.98819 
1038 2 33.2108 19.218 6.99403 
644 1 1.72752 20.9774 5.25565 
647 1 3.4778 22.7248 5.22902 
1042 2 1.72252 22.7222 6.98402 
1045 2 3.48863 20.983 6.98171 
648 1 5.23519 20.9844 5.2426 
651 1 6.99047 22.7154 5.22998 
1046 2 5.24262 22.7361 6.97632 
1049 2 6.97837 20.9745 6.98563 
652 1 8.73157 20.9623 5.23101 
655 2 10.4677 22.7059 5.23893 
1050 2 8.71858 22.7134 6.97718 
1053 2 10.4725 20.9568 6.98627 
656 2 12.2134 20.9666 5.24659 
659 1 13.9672 22.7044 5.24555 
1054 2 12.2276 22.7194 6.99806 
1057 2 13.9737 20.9763 6.99139 
660 2 15.734 20.9686 5.24904 
663 1 17.4938 22.698 5.24887 
664 2 19.2369 20.9516 5.23738 
1058 2 15.7233 22.7171 6.98863 
1061 2 17.4882 20.9563 6.99281 
1062 2 19.234 22.7249 6.98905 
667 2 20.9681 22.729 5.23002 
668 1 22.7178 20.9739 5.23338 
1065 2 20.9787 20.9627 6.97878 
1066 2 22.7185 22.7139 6.97711 
671 2 24.481 22.7314 5.22349 
672 2 26.2192 20.9775 5.23779 
1069 2 24.4653 20.9599 6.97675 
1070 2 26.2347 22.7157 6.98474 
675 1 27.973 22.7149 5.23974 
676 2 29.7069 20.9623 5.25323 
1073 2 27.9772 20.9755 6.98504 
1074 1 29.7121 22.7178 6.99096 
643 1 34.9299 22.7234 5.21981 
679 2 31.4478 22.7171 5.24745 
680 2 33.2103 20.9624 5.22865 
1041 2 34.9304 20.9643 6.97693 
1077 1 31.4577 20.9624 6.9849 
1078 1 33.2017 22.7113 6.9832 
684 2 1.72609 24.4518 5.21128 
687 2 3.50079 26.2017 5.22801 
1082 2 1.75112 26.2005 6.97552 
1085 2 3.48928 24.4669 6.96503 
688 2 5.25414 24.4585 5.22783 
691 1 6.99766 26.2356 5.22891 
1086 1 5.24667 26.2025 6.9787 
1089 2 6.99075 24.4796 6.97831 
692 2 8.7228 24.4619 5.22462 
695 2 10.4796 26.2195 5.24059 
1090 2 8.71714 26.2289 6.98955 
1093 2 10.4795 24.4692 6.98891 
696 2 12.2335 24.4638 5.24559 
699 1 13.9584 26.2249 5.25116 
1094 2 12.2224 26.2142 6.99064 
1097 1 13.9702 24.4647 6.99502 
700 2 15.7192 24.4564 5.25906 
703 1 17.4642 26.2143 5.24004 
704 2 19.2249 24.4797 5.23965 
1098 2 15.7311 26.2087 6.99066 
1101 2 17.4786 24.4686 6.97439 
1102 1 19.2205 26.2046 6.98015 
707 1 20.9855 26.205 5.24286 
708 2 22.7283 24.4712 5.24325 
1105 1 20.9774 24.471 6.9989 
1106 2 22.7028 26.2292 6.9965 
711 1 24.4693 26.2195 5.24463 
712 1 26.2378 24.4683 5.23766 
1109 2 24.461 24.4704 6.97092 
1110 2 26.2213 26.2152 6.96786 
715 2 27.9648 26.2154 5.23214 
716 2 29.7178 24.4641 5.234 
1113 2 27.9801 24.4564 6.99161 
1114 2 29.714 26.2048 6.97565 
683 2 34.9234 26.191 5.23524 
719 1 31.4685 26.223 5.23955 
720 1 33.1782 24.4502 5.24133 
1081 2 34.9192 24.4488 6.98548 
1117 1 31.4505 24.4661 6.98527 
1118 2 33.1946 26.1984 6.99113 
723 2 0.00812009 29.7036 5.24544 
724 2 1.73411 27.9447 5.23663 
727 1 3.48418 29.7075 5.24328 
1122 2 1.74104 29.7072 6.98894 
1125 2 3.48917 27.9484 6.98132 
728 2 5.23333 27.9587 5.24262 
731 2 6.98717 29.7006 5.249 
1126 2 5.24097 29.699 6.97751 
1129 2 6.98655 27.9562 7.0031 
732 2 8.74105 27.9824 5.23383 
735 2 10.4738 29.7205 5.24141 
1130 1 8.73061 29.705 7.01189 
1133 2 10.4726 27.9674 7.00732 
736 2 12.2282 27.9756 5.23514 
739 2 13.9879 29.7154 5.24654 
1134 2 12.2142 29.7163 6.97966 
1137 2 13.9754 27.9555 6.98823 
740 2 15.7297 27.9662 5.2527 
743 1 17.4668 29.7109 5.23396 
744 1 19.2213 27.9496 5.24331 
1138 2 15.7486 29.7059 6.99507 
1141 2 17.4843 27.9533 6.99703 
1142 1 19.1987 29.7001 6.97726 
747 1 20.966 29.7252 5.24271 
748 1 22.7064 27.9635 5.23951 
1145 1 20.9624 27.9741 6.98377 
1146 1 22.7262 29.7084 6.9761 
751 2 24.4574 29.6975 5.23531 
752 1 26.2209 27.9704 5.23709 
1149 2 24.4573 27.9645 6.974 
1150 2 26.205 29.7119 6.99319 
755 2 27.9679 29.711 5.24344 
756 2 29.7205 27.9699 5.24919 
1153 2 27.9672 27.9605 6.98949 
1154 2 29.7167 29.7235 7.00588 
759 2 31.4593 29.7081 5.24569 
760 1 33.2096 27.9627 5.24415 
1121 2 34.9421 27.9575 6.99582 
1157 2 31.4692 27.9528 7.00172 
1158 2 33.2064 29.7 6.98837 
764 2 1.7457 31.4529 5.24726 
767 2 3.48997 33.1987 5.23586 
1162 2 1.73261 33.2121 6.99492 
1165 2 3.49477 31.4616 6.97705 
768 2 5.23629 31.4576 5.2468 
771 2 6.98671 33.2058 5.24834 
1166 2 5.24413 33.2137 6.99435 
1169 1 6.98388 31.4472 6.98946 
412 2 8.72691 34.9392 5.25875 
772 1 8.73012 31.4489 5.25127 
775 2 10.4942 33.1904 5.24865 
813 1 10.4923 34.9383 6.98426 
1170 2 8.73702 33.2003 6.9993 
1173 2 10.4657 31.4614 6.99667 
416 2 12.2388 34.9345 5.2547 
776 1 12.226 31.4569 5.2441 
779 1 13.9757 33.1918 5.24733 
817 2 13.9604 34.9415 6.99716 
1174 1 12.2342 33.186 6.99616 
1177 2 13.9765 31.4581 6.98522 
780 1 15.7277 31.4534 5.24733 
783 2 17.4485 33.2011 5.26668 
784 2 19.2006 31.447 5.25251 
1178 2 15.7165 33.201 7.00551 
1181 2 17.4797 31.4495 7.00062 
1182 1 19.2121 33.201 6.9839 
787 2 20.9615 33.2025 5.23956 
788 2 22.7153 31.451 5.24289 
825 2 20.9735 34.9406 6.9806 
1185 2 20.9526 31.4392 6.98939 
1186 2 22.7033 33.1987 6.99537 
791 2 24.474 33.2101 5.23936 
792 2 26.2271 31.4575 5.24336 
1189 2 24.463 31.4593 6.98968 
1190 2 26.231 33.2179 6.98167 
795 2 27.9817 33.2155 5.2419 
796 1 29.7129 31.4585 5.2332 
1193 2 27.9772 31.4654 6.99445 
1194 1 29.7136 33.1961 6.99253 
763 2 34.9289 33.2078 5.2417 
799 1 31.4589 33.1921 5.23444 
800 2 33.1951 31.4516 5.22859 
1161 1 34.9322 31.448 6.99411 
1197 2 31.4547 31.4561 6.98179 
1198 2 33.1941 33.2106 6.97447 
803 1 0.00411732 1.74429 8.7235 
804 1 1.74015 0.000550753 8.73148 
807 2 3.49949 1.74882 8.73485 
844 2 1.73778 3.48943 8.73909 
1201 2 0.00734338 0.0210577 10.4631 
1202 1 1.74102 1.76056 10.4683 
1205 2 3.48364 0.0145935 10.4683 
1241 1 0.000523639 3.49518 10.4769 
1245 1 3.50362 3.48205 10.494 
808 1 5.23632 0.00586495 8.72819 
811 1 6.97218 1.73997 8.72701 
848 1 5.24625 3.49781 8.73617 
1206 1 5.24129 1.74147 10.4824 
1209 2 6.9841 0.0108323 10.4775 
1249 1 6.97841 3.47613 10.4821 
812 1 8.74654 0.00554182 8.72678 
815 2 10.4743 1.74351 8.73506 
852 2 8.72948 3.48783 8.75139 
1210 2 8.72187 1.73998 10.4792 
1253 1 10.4867 3.47038 10.4782 
819 2 13.9838 1.73421 8.731 
856 1 12.2312 3.48856 8.72958 
1214 2 12.2324 1.74225 10.4786 
1257 2 13.9703 3.50145 10.4775 
823 1 17.4806 1.75734 8.76032 
860 2 15.716 3.49114 8.76065 
864 2 19.2381 3.48594 8.75578 
1218 2 15.7369 1.73189 10.4926 
1222 1 19.2301 1.74375 10.5022 
1261 2 17.4759 3.48741 10.5022 
827 2 20.966 1.73669 8.73156 
868 1 22.6998 3.49743 8.73329 
1226 2 22.7149 1.75865 10.4716 
1265 2 20.9836 3.49275 10.4992 
831 2 24.4512 1.74363 8.73475 
832 1 26.2199 0.0172314 8.73856 
872 2 26.1882 3.50375 8.72726 
1229 2 24.4623 0.0129629 10.4849 
1230 1 26.1931 1.76568 10.4727 
1269 1 24.4483 3.50134 10.4647 
835 2 27.9603 1.75221 8.73222 
836 2 29.708 0.00512125 8.72384 
876 2 29.7162 3.51147 8.72874 
1233 2 27.9485 0.0284197 10.4806 
1234 1 29.6982 1.75745 10.4783 
1273 2 27.9481 3.50386 10.4773 
839 2 31.4547 1.76885 8.73617 
840 1 33.1856 0.00995188 8.73774 
880 1 33.1936 3.51406 8.73712 
1237 2 31.4529 0.0347993 10.4809 
1238 1 33.2058 1.76761 10.4637 
1277 1 31.4432 3.48673 10.4813 
843 1 0.00855062 5.24596 8.73203 
847 2 3.49856 5.23243 8.74469 
884 2 1.7594 6.97769 8.73197 
1242 2 1.74839 5.22093 10.4985 
1285 2 3.50455 6.97521 10.4765 
851 1 6.97539 5.24307 8.7557 
888 1 5.24168 6.98087 8.73736 
1246 1 5.24198 5.24318 10.4869 
1289 1 6.98604 6.99194 10.5006 
855 1 10.4925 5.23655 8.74539 
892 2 8.72947 6.96549 8.74265 