ITEM: TIMESTEP
1000
ITEM: NUMBER OF ATOMS
4001
ITEM: BOX BOUNDS pp pp pp
0.0000000000000000e+00 3.4945000000000000e+01
0.0000000000000000e+00 3.4945000000000000e+01
0.0000000000000000e+00 3.4945000000000000e+01
ITEM: ATOMS id type x y z 
2 1 1.72686 1.75187 0.0064373 
4 2 1.729 0.00872631 1.73972 
7 1 3.49129 1.73666 1.74154 
41 1 0.00888633 3.50736 0.00236739 
44 2 1.75018 3.49074 1.74429 
45 2 3.48598 3.49184 0.0128812 
402 2 1.752 1.75182 3.47692 
445 2 3.50262 3.49227 3.47987 
6 2 5.23347 1.74354 0.0052492 
8 2 5.25163 0.0103433 1.75448 
11 1 6.99614 1.74846 1.74311 
48 2 5.23995 3.48316 1.74364 
406 1 5.242 1.74662 3.49216 
409 2 6.99489 0.0209698 3.50187 
449 1 6.97224 3.48407 3.49787 
10 2 8.75218 1.75105 0.00625339 
12 1 8.74599 0.00863725 1.74605 
15 2 10.4895 1.73985 1.74457 
52 2 8.73982 3.48806 1.75795 
53 1 10.4883 3.49373 0.00630537 
410 2 8.72753 1.75174 3.5043 
413 2 10.4747 0.00699784 3.50423 
453 1 10.4847 3.47958 3.49847 
19 1 13.9735 1.73893 1.74773 
56 2 12.2322 3.47652 1.75675 
57 2 13.9644 3.47925 0.0157465 
414 1 12.2285 1.74562 3.50088 
417 2 13.9778 0.0118115 3.50519 
457 1 13.9888 3.47146 3.49794 
18 2 15.7169 1.75 0.0100223 
23 2 17.4711 1.74149 1.76145 
24 1 19.2071 0.00626125 1.75725 
60 2 15.7134 3.49128 1.75385 
64 2 19.2121 3.47023 1.74347 
418 1 15.7198 1.73279 3.50915 
421 2 17.473 0.00380368 3.51515 
422 1 19.2158 1.7434 3.50498 
461 2 17.4653 3.4847 3.50487 
27 1 20.9546 1.73281 1.72918 
28 1 22.7064 0.00285735 1.7508 
68 2 22.7174 3.46445 1.73901 
425 1 20.961 0.0156332 3.49821 
426 1 22.7101 1.74521 3.49396 
465 2 20.9576 3.47221 3.49874 
29 2 24.4655 0.0110024 0.00201139 
31 1 24.4698 1.74021 1.74248 
32 1 26.2204 0.0028656 1.75664 
72 1 26.2089 3.50387 1.74672 
429 1 24.4763 0.0168195 3.48905 
430 1 26.219 1.76484 3.49325 
469 2 24.4543 3.48287 3.48648 
34 2 29.6938 1.75212 0.0013773 
35 1 27.9572 1.74455 1.74303 
73 1 27.9582 3.47867 0.000626392 
76 1 29.7086 3.4922 1.75609 
433 1 27.9647 0.00674544 3.4917 
434 1 29.7218 1.75648 3.48467 
473 2 27.9675 3.48694 3.48315 
36 1 29.7193 0.00064007 1.74789 
3 1 34.9338 1.75401 1.74499 
39 1 31.4533 1.76068 1.71819 
80 2 33.1881 3.50182 1.72845 
401 2 34.9325 0.00252569 3.48488 
438 2 33.1737 1.74223 3.47864 
441 2 34.9306 3.49507 3.48702 
477 1 31.4573 3.49776 3.4913 
43 2 0.010953 5.24364 1.73271 
47 1 3.50713 5.25395 1.74829 
84 2 1.7589 6.99207 1.74129 
442 2 1.75031 5.23859 3.48461 
481 2 0.00750377 6.99784 3.48859 
485 2 3.50532 6.98462 3.50226 
51 2 6.98269 5.22142 1.75244 
88 2 5.26095 6.97915 1.74816 
446 2 5.24529 5.23631 3.48734 
489 2 6.99196 6.98002 3.51756 
50 2 8.73196 5.23672 0.0111429 
55 2 10.4965 5.23518 1.76529 
92 1 8.73383 6.97185 1.76481 
450 2 8.73885 5.22374 3.49796 
493 2 10.493 6.97888 3.50892 
54 2 12.2388 5.22329 0.00464872 
59 1 13.9767 5.23339 1.74417 
96 2 12.2436 6.99422 1.7364 
97 2 13.9928 6.9748 0.01112 
454 2 12.2497 5.21875 3.50641 
497 1 13.9803 6.9915 3.48614 
58 1 15.7105 5.23886 0.00769198 
63 2 17.4557 5.23528 1.74485 
100 1 15.7253 6.97557 1.76347 
104 2 19.192 6.97971 1.73083 
458 2 15.7146 5.22834 3.50178 
462 1 19.2163 5.23602 3.48632 
501 2 17.4677 6.97828 3.49587 
67 2 20.9538 5.22231 1.75146 
108 2 22.7104 6.98527 1.73832 
466 2 22.6886 5.22677 3.49232 
505 2 20.9456 6.99244 3.48187 
71 2 24.4562 5.23127 1.74401 
112 2 26.2248 6.97259 1.74354 
470 2 26.214 5.23312 3.50099 
509 2 24.4701 6.99137 3.47814 
74 1 29.708 5.23461 0.00503967 
75 2 27.9711 5.23833 1.74732 
116 1 29.6993 6.99617 1.75216 
474 2 29.7039 5.23531 3.49296 
513 1 27.9542 6.98658 3.49672 
79 2 31.4412 5.24548 1.74878 
120 2 33.1892 7.00041 1.7304 
478 2 33.1967 5.25126 3.49033 
517 2 31.4396 6.98899 3.49432 
83 2 0.000778826 8.73556 1.736 
87 2 3.52026 8.71969 1.74396 
124 2 1.74442 10.4805 1.73863 
482 2 1.77038 8.74541 3.5004 
521 1 0.00901379 10.4662 3.4908 
525 2 3.50558 10.4845 3.50102 
91 2 6.98798 8.71765 1.75735 
128 2 5.24666 10.4787 1.74463 
129 2 6.99986 10.4818 0.0112723 
486 1 5.25186 8.71572 3.50493 
529 1 6.97399 10.4678 3.47944 
95 2 10.4893 8.73156 1.73462 
132 2 8.75409 10.4625 1.74787 
490 2 8.72164 8.73386 3.50225 
533 1 10.4812 10.4595 3.4928 
99 1 13.9844 8.73861 1.73439 
136 1 12.2216 10.4791 1.75044 
137 2 13.9574 10.4823 0.00452124 
494 2 12.2409 8.73237 3.49096 
537 2 13.9643 10.4746 3.50773 
103 2 17.45 8.72847 1.73757 
140 2 15.7061 10.4827 1.75462 
144 2 19.2272 10.476 1.73668 
498 2 15.7213 8.73362 3.50488 
502 1 19.2056 8.73399 3.4722 
541 2 17.4795 10.4922 3.48982 
107 2 20.9551 8.74147 1.72906 
148 1 22.7021 10.4709 1.73952 
506 2 22.6985 8.73674 3.48308 
545 1 20.96 10.4635 3.49884 
111 2 24.4662 8.72777 1.73072 
152 2 26.199 10.4767 1.73559 
510 2 26.2229 8.736 3.50201 
549 2 24.4492 10.4721 3.47208 
114 1 29.7003 8.72899 0.00685221 
115 1 27.9472 8.7351 1.72494 
156 2 29.7143 10.4634 1.73258 
514 2 29.6873 8.73782 3.46611 
553 1 27.951 10.488 3.49205 
119 1 31.4636 8.73792 1.73442 
160 1 33.2153 10.4786 1.74011 
518 2 33.2024 8.73851 3.48413 
557 2 31.4677 10.4706 3.4837 
123 2 0.00278126 12.2159 1.74447 
127 2 3.50082 12.2404 1.73561 
161 2 0.00459523 13.9591 0.0100151 
164 2 1.73889 13.9776 1.75095 
522 1 1.73374 12.226 3.49577 
565 2 3.49184 13.968 3.4961 
131 2 6.99068 12.2395 1.7591 
168 2 5.24626 13.9802 1.74769 
169 2 6.99707 13.995 0.0138457 
526 1 5.24576 12.2298 3.50361 
569 1 6.97359 13.981 3.49897 
135 1 10.4713 12.2201 1.75255 
172 2 8.74289 13.9815 1.76282 
530 2 8.72465 12.2256 3.50211 
573 1 10.4853 13.9823 3.50015 
139 2 13.967 12.2305 1.75496 
176 2 12.2295 13.9648 1.75158 
177 2 13.9766 13.9899 0.0153887 
534 2 12.2129 12.2314 3.49583 
577 1 13.977 13.9687 3.50713 
143 2 17.4665 12.2433 1.74283 
180 1 15.7251 13.979 1.74491 
184 2 19.2005 13.9952 1.74479 
538 2 15.7265 12.2392 3.50649 
542 2 19.2329 12.228 3.48984 
581 1 17.4711 13.9795 3.50233 
146 2 22.7172 12.2331 0.0170551 
147 2 20.9686 12.2164 1.76322 
185 2 20.9512 13.9687 0.0167466 
188 2 22.7074 13.9906 1.76521 
546 1 22.7057 12.2177 3.49597 
585 1 20.9713 13.9897 3.49712 
150 1 26.2029 12.2139 0.00677777 
151 2 24.4499 12.2209 1.74607 
189 2 24.4704 13.9775 0.00466067 
192 2 26.2104 13.9905 1.74979 
550 2 26.1987 12.2377 3.48667 
589 2 24.4443 13.9894 3.50296 
154 1 29.707 12.2229 0.0135415 
155 2 27.9544 12.2159 1.74658 
193 1 27.9502 13.972 0.00739923 
196 2 29.715 13.9725 1.75246 
554 2 29.7058 12.2255 3.48221 
593 2 27.9614 13.9631 3.49504 
158 1 33.2024 12.2163 0.00636954 
159 2 31.4668 12.2091 1.74056 
197 2 31.4458 13.9553 0.00439676 
200 1 33.2033 13.9664 1.73495 
558 2 33.224 12.2128 3.48818 
561 1 34.9417 13.9716 3.48482 
597 2 31.4708 13.9714 3.48868 
162 1 1.74173 15.734 0.010253 
163 2 0.00363602 15.7212 1.75377 
167 1 3.48853 15.7131 1.75893 
201 2 0.00356726 17.4757 0.000997485 
202 2 1.74392 19.2073 0.00483765 
203 2 0.0046701 19.2276 1.75679 
204 1 1.75173 17.4623 1.74631 
205 1 3.49241 17.4686 0.00514791 
207 1 3.47159 19.2262 1.74997 
562 2 1.74523 15.7078 3.48533 
601 2 0.00582729 17.4701 3.50605 
602 2 1.73932 19.2311 3.49003 
605 1 3.48006 17.4786 3.49844 
166 1 5.24692 15.7413 0.0112198 
171 1 6.98889 15.7276 1.76924 
206 2 5.22533 19.2122 0.00137524 
208 2 5.2128 17.4795 1.76801 
209 2 6.97561 17.4698 0.0096767 
211 2 6.9665 19.2236 1.75336 
566 2 5.24466 15.7311 3.49149 
606 1 5.21044 19.2372 3.49478 
609 1 6.98096 17.4942 3.49249 
175 2 10.4792 15.7076 1.73818 
210 2 8.73164 19.2181 0.0157847 
212 2 8.7288 17.4697 1.76031 
215 2 10.4823 19.2187 1.76391 
570 1 8.73806 15.7218 3.4991 
610 1 8.72165 19.2242 3.49287 
613 2 10.4783 17.469 3.49265 
179 1 13.9755 15.7252 1.75573 
214 2 12.2395 19.2217 0.0160194 
216 2 12.2494 17.4709 1.75648 
219 2 13.9944 19.2012 1.76209 
574 2 12.2282 15.7225 3.49993 
614 1 12.2347 19.2188 3.4986 
617 1 13.9741 17.4755 3.5107 
178 2 15.7225 15.7431 0.00741903 
183 2 17.459 15.7342 1.74849 
220 1 15.7141 17.478 1.74646 
222 2 19.2125 19.2173 0.00229751 
223 1 17.4658 19.2132 1.74012 
224 1 19.2126 17.4738 1.75252 
578 2 15.7125 15.7186 3.49265 
582 2 19.2248 15.734 3.50978 
618 1 15.7387 19.2131 3.50715 
621 2 17.463 17.4736 3.48993 
622 2 19.2122 19.2128 3.48684 
187 2 20.9702 15.7458 1.76234 
225 2 20.9664 17.4782 0.0119855 
226 2 22.7386 19.2212 0.00555639 
227 1 20.9719 19.2112 1.75069 
228 1 22.7247 17.4709 1.74535 
586 1 22.7085 15.7398 3.50512 
625 2 20.9792 17.4805 3.50437 
626 2 22.7358 19.2104 3.49952 
191 2 24.4652 15.7431 1.74564 
230 1 26.2113 19.219 0.00507875 
231 1 24.4785 19.2075 1.75762 
232 1 26.2256 17.4659 1.75352 
590 1 26.2287 15.7146 3.51345 
629 1 24.4808 17.4637 3.49195 
630 1 26.2204 19.2239 3.50347 
195 2 27.9555 15.7316 1.74268 
235 1 27.9597 19.2129 1.74376 
236 2 29.6976 17.471 1.75556 
594 2 29.7067 15.7197 3.50918 
633 2 27.9542 17.477 3.49761 
634 2 29.7003 19.2232 3.50445 
199 2 31.4609 15.7205 1.74314 
239 2 31.4427 19.226 1.74958 
240 2 33.2041 17.4727 1.74269 
598 2 33.2066 15.7292 3.49966 
637 2 31.4584 17.4743 3.50436 
638 1 33.2052 19.2099 3.48968 
242 2 1.72282 22.7249 0.00191334 
244 1 1.73059 20.9712 1.73632 
247 2 3.495 22.7029 1.75291 
642 2 1.72958 22.7257 3.48707 
645 2 3.47455 20.9764 3.49099 
248 1 5.24224 20.9623 1.73146 
251 1 6.98872 22.7115 1.73959 
646 2 5.25291 22.7039 3.49133 
649 2 6.97913 20.9675 3.49836 
250 2 8.7375 22.7163 0.0171123 
252 2 8.7197 20.9781 1.7597 
255 2 10.4654 22.7221 1.75229 
650 1 8.72108 22.7249 3.49192 
653 2 10.4717 20.959 3.49811 
254 2 12.2351 22.7208 0.0117236 
256 2 12.2328 20.968 1.75666 
257 2 13.9922 20.959 0.011695 
259 2 13.9806 22.7225 1.77246 
654 2 12.2198 22.7163 3.49899 
657 2 13.9897 20.954 3.50301 
258 2 15.7337 22.7118 0.00245074 
260 2 15.7431 20.9475 1.74498 
263 2 17.4799 22.7161 1.75587 
264 2 19.2179 20.946 1.74703 
658 2 15.738 22.7001 3.51477 
661 1 17.4755 20.9551 3.50405 
662 2 19.2302 22.7141 3.49681 
265 2 20.972 20.9779 0.0141233 
266 1 22.708 22.7087 0.0128595 
267 2 20.9806 22.7138 1.75466 
268 2 22.7328 20.9563 1.7559 
665 1 20.9799 20.9436 3.49479 
666 1 22.7099 22.7246 3.50561 
269 1 24.4798 20.9743 0.00424064 
270 1 26.2218 22.7247 0.0153139 
271 1 24.4592 22.7248 1.76392 
272 1 26.2176 20.9767 1.76355 
669 2 24.459 20.9728 3.48658 
670 2 26.2228 22.724 3.49186 
273 2 27.9418 20.9609 0.00413387 
274 2 29.7136 22.7155 0.00435725 
275 2 27.9699 22.7147 1.76014 
276 2 29.7077 20.9702 1.7409 
673 2 27.9665 20.9597 3.50145 
674 1 29.7156 22.7078 3.49511 
243 2 34.9218 22.7174 1.73703 
279 1 31.4601 22.7102 1.74579 
280 1 33.1856 20.9632 1.74038 
641 1 34.9365 20.9677 3.49 
677 2 31.462 20.9622 3.49709 
678 2 33.1859 22.7096 3.48402 
284 1 1.74822 24.4694 1.74947 
285 2 3.48456 24.4663 0.000691385 
287 2 3.50152 26.2025 1.75426 
682 1 1.73449 26.1908 3.49281 
685 1 3.50808 24.4538 3.49381 
286 1 5.24584 26.1875 0.00728586 
288 2 5.24844 24.4512 1.74432 
289 2 6.98836 24.471 0.0126205 
291 1 6.98171 26.2262 1.74886 
686 2 5.24133 26.2167 3.49331 
689 1 6.99094 24.4703 3.48571 
290 2 8.71848 26.2353 0.0128668 
292 1 8.72967 24.4724 1.74794 
295 2 10.4741 26.2287 1.74675 
690 2 8.73453 26.225 3.48139 
693 2 10.469 24.4698 3.49331 
294 2 12.2457 26.2213 0.00701103 
296 2 12.2165 24.4816 1.75427 
297 2 13.9931 24.4759 0.0101923 
299 2 13.9868 26.2224 1.76419 
694 1 12.2309 26.2121 3.50005 
697 2 13.9831 24.4731 3.52166 
298 1 15.7356 26.2038 0.00352292 
300 2 15.7432 24.4653 1.75118 
303 1 17.4689 26.2147 1.7362 
304 2 19.2154 24.4819 1.74059 
698 2 15.7156 26.2154 3.49947 
701 1 17.4636 24.4714 3.51292 
702 2 19.2105 26.211 3.50568 
306 1 22.7086 26.23 0.00645247 
307 2 20.9597 26.2231 1.75245 
308 2 22.7141 24.4659 1.75332 
705 1 20.9738 24.4809 3.4924 
706 2 22.7342 26.2019 3.49558 
309 2 24.4448 24.4547 0.0122538 
310 2 26.2029 26.2024 0.00445866 
311 2 24.4777 26.2062 1.74959 
312 2 26.2216 24.4617 1.76394 
709 1 24.4894 24.476 3.50124 
710 1 26.218 26.2273 3.50256 
313 2 27.966 24.4711 0.00301555 
314 2 29.7164 26.2264 0.00113592 
315 1 27.9645 26.2175 1.74702 
316 2 29.7197 24.465 1.7597 
713 2 27.9689 24.4753 3.49752 
714 1 29.7194 26.224 3.49937 
283 2 34.9333 26.1912 1.731 
319 2 31.4465 26.2108 1.73857 
320 1 33.1748 24.4613 1.72972 
681 1 34.9136 24.4686 3.48244 
717 2 31.4569 24.4651 3.49981 
718 2 33.1894 26.2186 3.48283 
324 2 1.73854 27.9346 1.74257 
327 2 3.4944 29.6962 1.75525 
722 2 1.75194 29.6936 3.49747 
725 2 3.48252 27.9565 3.49206 
326 1 5.22795 29.7056 0.00354056 
328 2 5.24087 27.9604 1.73903 
331 2 6.9809 29.698 1.74236 
726 1 5.22716 29.7086 3.50786 
729 2 6.9844 27.9637 3.48971 
332 1 8.72108 27.9756 1.7418 
333 2 10.4954 27.9809 0.0124677 
335 2 10.4796 29.7125 1.75156 
730 1 8.72966 29.7109 3.49748 
733 2 10.5003 27.9759 3.47691 
334 2 12.2357 29.7211 0.00956705 
336 1 12.2516 27.967 1.74856 
339 2 13.9785 29.7104 1.74259 
734 1 12.2466 29.7177 3.49724 
737 1 13.9753 27.9672 3.50927 
338 1 15.722 29.7092 0.0126903 
340 2 15.7223 27.9576 1.73365 
342 1 19.2313 29.7045 0.00719001 
343 2 17.4868 29.6938 1.75779 
344 1 19.217 27.9569 1.75091 
738 2 15.7247 29.7104 3.49409 
741 2 17.4651 27.9516 3.49128 
742 2 19.2209 29.7065 3.50003 
345 2 20.9605 27.973 0.00669542 
346 2 22.6969 29.7152 0.00505203 
347 1 20.9669 29.7195 1.7492 
348 2 22.7039 27.9672 1.76241 
745 2 20.9632 27.9579 3.50944 
746 2 22.7073 29.7176 3.50273 
349 2 24.4596 27.9574 0.00489673 
351 2 24.4616 29.7137 1.7513 
352 2 26.2237 27.967 1.74847 
749 2 24.4692 27.9501 3.50372 
750 2 26.2192 29.7174 3.49159 
353 2 27.9658 27.9667 0.00303952 
355 1 27.9604 29.7235 1.74894 
356 2 29.7079 27.9684 1.74837 
753 2 27.9661 27.9627 3.48889 
754 2 29.7162 29.7196 3.48296 
323 2 34.9406 29.7064 1.74675 
357 1 31.4514 27.9675 0.0118596 
359 2 31.4641 29.7145 1.74057 
360 1 33.1967 27.9583 1.73412 
721 2 34.9375 27.9421 3.48841 
757 2 31.4672 27.9708 3.49126 
758 1 33.2098 29.7038 3.50464 
363 1 0.00712952 33.1805 1.74006 
364 2 1.73916 31.4478 1.74648 
365 2 3.49714 31.4502 0.0120741 
367 2 3.47967 33.2113 1.7444 
405 2 3.49162 34.9408 3.49969 
762 2 1.73359 33.1976 3.49286 
765 1 3.4876 31.4543 3.48606 
366 1 5.24226 33.2123 0.010677 
368 2 5.23752 31.4543 1.75024 
369 2 6.98549 31.4505 0.00338126 
371 2 7.00162 33.2189 1.74698 
766 2 5.23698 33.1973 3.48076 
769 2 6.97539 31.4431 3.51404 
13 2 10.4837 34.9366 0.00727982 
370 2 8.7405 33.184 0.0125462 
372 2 8.73143 31.4428 1.76041 
373 1 10.4729 31.4534 0.00675482 
375 1 10.4703 33.1833 1.76134 
770 2 8.73447 33.1878 3.49633 
773 2 10.4802 31.4436 3.49956 
16 2 12.2233 34.9347 1.75272 
17 2 13.9738 34.9271 0.000378913 
374 1 12.2311 33.1969 0.0109857 
376 2 12.2293 31.457 1.75333 
379 1 13.9865 33.1851 1.76168 
774 2 12.2337 33.1937 3.49751 
777 2 13.9876 31.4485 3.50263 
20 2 15.7268 34.9427 1.76226 
380 2 15.7292 31.4531 1.76047 
381 2 17.4762 31.434 0.0115815 
383 2 17.4643 33.2006 1.75205 
384 2 19.2172 31.4572 1.73744 
778 2 15.7223 33.2091 3.51689 
781 1 17.4748 31.461 3.50727 
782 2 19.2094 33.2155 3.49767 
25 2 20.9586 34.9376 0.000840667 
385 1 20.9668 31.4627 0.000568829 
387 2 20.9589 33.2128 1.74297 
388 2 22.7087 31.4736 1.74503 
785 2 20.9545 31.4713 3.48697 
786 2 22.7249 33.227 3.48931 
391 2 24.4691 33.2232 1.74624 
392 2 26.2163 31.474 1.73812 
789 2 24.4682 31.4738 3.49501 
790 1 26.2168 33.1978 3.50528 
395 2 27.9741 33.214 1.73843 
396 2 29.7186 31.4631 1.73668 
793 2 27.9766 31.4711 3.49188 
794 1 29.7236 33.2006 3.48938 
1 1 34.9394 34.9348 0.00638427 
37 2 31.4631 34.9416 0.00113168 
40 2 33.1947 34.9293 1.73793 
398 2 33.1996 33.1735 0.001717 
399 1 31.4611 33.1784 1.73692 
400 1 33.2109 31.4478 1.75389 
437 1 31.4513 34.9453 3.47992 
761 2 34.9437 31.4539 3.50222 
797 1 31.463 31.4487 3.48765 
798 1 33.2089 33.2064 3.48895 
404 2 1.74031 0.0145656 5.25658 
407 2 3.50263 1.74789 5.22619 
444 1 1.74353 3.49144 5.22406 
802 2 1.7473 1.74708 6.9901 
805 1 3.49876 0.0108227 6.98542 
845 2 3.4809 3.49272 6.99139 
408 1 5.23956 0.00139893 5.2244 
411 1 6.98295 1.74002 5.25348 
448 2 5.23536 3.48633 5.24807 
806 1 5.23321 1.74435 6.98129 
809 1 6.98392 0.00441876 6.99299 
849 2 6.98322 3.48524 6.99864 
415 2 10.4878 1.75219 5.25328 
452 2 8.73281 3.48683 5.2379 
810 1 8.73459 1.75269 6.99124 
853 2 10.4922 3.49321 6.99619 
419 1 13.9612 1.74135 5.26085 
456 2 12.2414 3.48529 5.25293 
814 1 12.2241 1.74458 7.00688 
857 1 13.9879 3.46916 7.00165 
420 1 15.7152 0.0163395 5.26341 
423 1 17.4759 1.75386 5.25017 
424 2 19.2109 0.00765408 5.24014 
460 2 15.7121 3.47409 5.2519 
464 2 19.2348 3.49314 5.24328 
818 2 15.7292 1.75079 6.99271 
821 2 17.4767 0.00892419 7.00411 
822 2 19.2216 1.75002 6.99452 
861 2 17.4654 3.49859 7.00694 
427 1 20.9755 1.73592 5.25311 
428 2 22.728 0.0177941 5.23704 
468 1 22.6982 3.49315 5.23004 
826 1 22.7243 1.74445 6.99515 
865 2 20.9802 3.49076 6.98131 
431 2 24.4607 1.75499 5.22922 
432 1 26.2219 0.00960338 5.23685 
472 2 26.2027 3.4996 5.23666 
829 2 24.4652 0.00142499 6.98723 
830 2 26.2132 1.74886 6.98199 
869 2 24.4401 3.50299 6.99199 
435 1 27.9587 1.75012 5.23765 
436 2 29.7192 0.00453882 5.22727 
476 2 29.7093 3.49166 5.23365 
833 2 27.9685 0.0131573 6.97893 
834 1 29.7176 1.75734 6.98202 
873 2 27.9674 3.50073 6.97879 
403 2 34.9329 1.75156 5.23823 
439 1 31.4602 1.75528 5.24576 
440 1 33.1874 0.00899438 5.22196 
480 2 33.2037 3.48876 5.24507 
801 1 34.9268 0.00897593 6.98541 
837 2 31.4605 0.0032088 6.9691 
838 2 33.1909 1.74901 7.00086 
841 1 34.9409 3.49306 6.98467 
877 2 31.4568 3.51638 6.98799 
443 2 0.000867383 5.23381 5.24501 
447 2 3.49302 5.23317 5.22873 
484 2 1.7581 6.97804 5.24218 
842 2 1.74313 5.23688 6.98017 
881 2 0.00292383 6.97762 6.98682 
885 1 3.4905 6.97161 6.98323 
451 2 6.99435 5.22895 5.25339 
488 1 5.24394 6.97673 5.24196 
846 2 5.23865 5.24489 7.00293 
889 1 6.99107 6.96589 6.98837 
455 1 10.4818 5.22887 5.2417 
492 2 8.73047 6.98545 5.24595 
850 2 8.74113 5.22539 7.00794 
893 1 10.4737 6.96994 6.99056 
459 1 13.9866 5.23449 5.25933 
496 2 12.2406 6.97755 5.25843 
854 2 12.2376 5.22994 6.99452 
897 1 13.9792 6.98608 6.9976 
463 2 17.4786 5.22563 5.26178 
500 2 15.7125 6.98967 5.25295 
504 2 19.2152 6.98286 5.24274 
858 1 15.7124 5.23091 7.00018 
862 1 19.2343 5.22526 7.00343 
901 1 17.4883 6.98334 6.98944 
467 1 20.9575 5.25231 5.24059 
508 2 22.7214 6.97565 5.2424 
866 2 22.6942 5.23975 6.98747 
905 2 20.9531 6.99131 6.98902 
471 2 24.4547 5.25233 5.23499 
512 1 26.2121 7.00041 5.22762 
870 2 26.2189 5.26395 6.97859 
909 2 24.4684 7.00419 6.9868 
475 1 27.956 5.23542 5.23409 
516 2 29.6904 6.98375 5.23559 
874 1 29.7065 5.2582 6.97927 
913 2 27.9606 6.9989 6.97792 
479 2 31.4458 5.23967 5.24762 
520 2 33.1957 7.00364 5.23913 
878 2 33.1919 5.25006 6.99632 
917 1 31.4511 7.00011 6.97792 
483 2 0.00817471 8.73858 5.23875 
487 2 3.50876 8.72291 5.25926 
524 2 1.73742 10.4834 5.24438 
882 1 1.7379 8.72183 6.99084 
925 1 3.49008 10.4757 6.98269 
491 1 6.98209 8.73978 5.25256 
528 2 5.25404 10.4679 5.25731 
886 1 5.24897 8.7123 6.99707 
929 1 6.97763 10.4876 7.00261 
495 2 10.4786 8.73002 5.25578 
532 1 8.72419 10.4827 5.24629 
890 2 8.72217 8.74271 6.98558 
933 1 10.4843 10.4807 7.00294 
499 1 13.9732 8.74126 5.25449 
536 2 12.2227 10.4834 5.24418 
894 2 12.2374 8.73193 6.99851 
937 1 13.9793 10.4946 6.99245 
503 2 17.4693 8.72902 5.24943 
540 1 15.7319 10.4706 5.24787 
544 2 19.2109 10.4713 5.23105 
898 1 15.7094 8.73443 6.9846 
902 1 19.2338 8.74683 6.98711 
941 2 17.4663 10.4629 6.98566 
507 2 20.9649 8.72871 5.23009 
548 2 22.7108 10.4855 5.21977 
906 2 22.7128 8.73069 6.99046 
945 2 20.9668 10.4802 6.96737 
511 1 24.4442 8.73417 5.22503 
552 2 26.2135 10.4784 5.22983 
910 1 26.2144 8.73934 6.9627 
949 2 24.46 10.4697 6.98812 
515 1 27.9721 8.73566 5.23557 
556 2 29.7096 10.4939 5.22389 
914 2 29.7013 8.72829 6.99498 
953 2 27.9748 10.4736 6.9653 
519 2 31.4365 8.74026 5.23059 
560 1 33.2025 10.4647 5.24129 
918 2 33.2 8.74387 6.99258 
921 2 34.9408 10.4827 6.98598 
957 1 31.4434 10.4753 6.98241 
527 2 3.48715 12.2231 5.23981 
564 1 1.74655 13.9622 5.23619 
922 2 1.74387 12.2261 6.97713 
965 2 3.48241 13.9695 6.99544 
531 2 6.98167 12.2193 5.24961 
568 2 5.22918 13.9831 5.25218 
926 1 5.23437 12.2355 6.99736 
969 1 6.979 13.9878 6.9904 
535 2 10.4746 12.2134 5.23074 
572 2 8.73295 13.9668 5.23618 
930 1 8.74154 12.2251 6.99117 
973 2 10.4653 13.9659 6.97344 
539 2 13.9776 12.2251 5.25204 
576 1 12.2129 13.9796 5.24862 
934 2 12.2138 12.2236 6.99205 
977 2 13.971 13.961 6.97897 
543 2 17.4783 12.2417 5.24266 
580 1 15.7286 13.9776 5.2574 
584 2 19.2237 13.9948 5.22962 
938 2 15.7273 12.213 6.98544 
942 2 19.2242 12.2268 6.98396 
981 2 17.4777 13.9888 6.98206 
547 1 20.9561 12.22 5.22459 
588 1 22.7018 13.9683 5.24117 
946 2 22.7124 12.2222 6.96738 
985 2 20.9634 13.9912 6.96607 
551 2 24.4553 12.2203 5.24085 
592 1 26.2038 13.9606 5.23501 
950 2 26.2106 12.2178 6.98048 
989 2 24.4674 13.9725 6.98873 
555 1 27.9635 12.2396 5.23036 
596 1 29.7237 13.9594 5.23893 
954 2 29.7177 12.2222 6.97654 
993 2 27.9572 13.9572 6.97429 
523 1 34.9426 12.2162 5.23851 
559 2 31.4639 12.2146 5.23554 
600 2 33.2148 13.9697 5.2324 
958 1 33.197 12.22 6.97909 
961 1 34.9442 13.9735 6.97916 
997 2 31.4726 13.961 6.98772 
563 1 0.00592181 15.7154 5.23546 
567 2 3.47771 15.7248 5.22796 
604 2 1.73443 17.473 5.23342 
607 2 3.48688 19.2379 5.23 
962 2 1.73446 15.7114 6.98393 
1001 1 0.00176942 17.4734 6.99776 
1002 2 1.72997 19.2206 6.99397 
1005 2 3.4773 17.4662 6.96555 
571 2 6.97948 15.7329 5.23324 
608 1 5.23358 17.4588 5.22878 
611 1 6.96761 19.2166 5.23094 
966 1 5.22028 15.7315 6.98732 
1006 2 5.23024 19.2082 6.96216 
1009 2 6.97093 17.4574 6.97939 
575 2 10.4736 15.7316 5.24058 
612 2 8.71635 17.4915 5.2347 
615 1 10.4819 19.2088 5.22747 
970 2 8.71239 15.7149 6.98322 
1010 2 8.72137 19.2202 6.98488 
1013 2 10.4664 17.4769 6.98703 
579 2 13.9827 15.7098 5.24416 
616 2 12.2286 17.4687 5.24033 
619 2 13.9702 19.2279 5.23761 
974 2 12.225 15.7225 6.98791 
1014 2 12.2211 19.2206 6.9791 
1017 2 13.9894 17.4682 6.97935 
583 1 17.4623 15.7288 5.23352 
620 2 15.7344 17.464 5.23574 
623 2 17.4749 19.2149 5.24296 
624 1 19.2093 17.4756 5.25144 
978 2 15.738 15.7221 6.99825 
982 1 19.2184 15.7223 6.97433 
1018 2 15.725 19.2166 6.99688 
1021 1 17.4682 17.4656 6.99126 
1022 2 19.2314 19.1973 6.99915 
587 1 20.9763 15.7433 5.23476 
627 2 20.9808 19.2044 5.24208 
628 1 22.7309 17.4807 5.25418 
986 2 22.7039 15.7381 6.97169 
1025 1 20.9667 17.4667 6.99232 
1026 1 22.7226 19.2189 6.99036 
591 2 24.4538 15.7186 5.23865 
631 2 24.4728 19.2151 5.235 
632 2 26.2165 17.4558 5.22988 
990 2 26.2145 15.7071 6.98524 
1029 1 24.4828 17.4665 6.98249 
1030 2 26.2099 19.2172 6.9745 
595 2 27.975 15.7051 5.24362 
635 1 27.9579 19.2101 5.24922 
636 1 29.7103 17.4777 5.2467 
994 2 29.7226 15.7145 6.98249 
1033 2 27.9549 17.4669 6.97659 
1034 2 29.7152 19.2256 6.99141 
599 2 31.462 15.7252 5.25404 
603 1 34.9415 19.2133 5.22908 
639 2 31.4629 19.2109 5.25004 
640 1 33.2094 17.4723 5.25698 
998 1 33.212 15.7172 6.97949 
1037 2 31.4681 17.4714 6.98887 
1038 2 33.2104 19.2177 6.99482 
644 1 1.72765 20.9769 5.25634 
647 1 3.47803 22.7242 5.22969 
1042 2 1.72263 22.7215 6.98478 
1045 2 3.48905 20.9824 6.98258 
648 1 5.23546 20.9839 5.24323 
651 1 6.9906 22.7147 5.23044 
1046 2 5.24312 22.7353 6.97716 
1049 2 6.97894 20.9737 6.9865 
652 1 8.73168 20.9618 5.23131 
655 2 10.4677 22.7054 5.23914 
1050 2 8.71881 22.7127 6.9777 
1053 2 10.4727 20.9561 6.98655 
656 2 12.2134 20.9661 5.24679 
659 1 13.9671 22.704 5.24568 
1054 2 12.2276 22.7189 6.99824 
1057 2 13.9737 20.9758 6.99171 
660 2 15.7339 20.9683 5.24911 
663 1 17.4936 22.6977 5.24905 
664 2 19.2366 20.9513 5.2376 
1058 2 15.7232 22.7168 6.98879 
1061 2 17.4879 20.9559 6.99293 
1062 2 19.2336 22.7246 6.9897 
667 2 20.9677 22.7287 5.23034 
668 1 22.7172 20.9735 5.23393 
1065 2 20.9779 20.962 6.97956 
1066 2 22.7179 22.7135 6.97755 
671 2 24.4806 22.731 5.22382 
672 2 26.2186 20.977 5.23821 
1069 2 24.4643 20.9592 6.97742 
1070 2 26.2343 22.7153 6.98491 
675 1 27.9727 22.7144 5.23998 
676 2 29.7066 20.9618 5.25363 
1073 2 27.9767 20.975 6.98542 
1074 1 29.7118 22.7171 6.99143 
643 1 34.9299 22.7229 5.22037 
679 2 31.4477 22.7165 5.24789 
680 2 33.2102 20.962 5.22919 
1041 2 34.9303 20.9638 6.97767 
1077 1 31.4573 20.9619 6.98558 
1078 1 33.2015 22.7106 6.98386 
684 2 1.72619 24.4512 5.21176 
687 2 3.50086 26.201 5.22845 
1082 2 1.75123 26.1997 6.97605 
1085 2 3.48952 24.4661 6.96571 
688 2 5.25427 24.4578 5.22832 
691 1 6.99758 26.235 5.2292 
1086 1 5.24679 26.2017 6.97919 
1089 2 6.991 24.4788 6.97886 
692 2 8.72275 24.4613 5.22486 
695 2 10.4793 26.2191 5.2406 
1090 2 8.71704 26.2283 6.98973 
1093 2 10.4794 24.4686 6.98909 
696 2 12.2333 24.4634 5.24561 
699 1 13.9581 26.2247 5.25103 
1094 2 12.222 26.214 6.99049 
1097 1 13.97 24.4646 6.99491 
700 2 15.719 24.4562 5.25907 
703 1 17.464 26.2143 5.23989 
704 2 19.2246 24.4795 5.23974 
1098 2 15.7307 26.2088 6.9903 
1101 2 17.4784 24.4685 6.97442 
1102 1 19.2203 26.2049 6.97972 
707 1 20.9854 26.2049 5.24271 
708 2 22.7281 24.471 5.24338 
1105 1 20.977 24.4709 6.99892 
1106 2 22.7028 26.2294 6.996 
711 1 24.4694 26.2193 5.24451 
712 1 26.2377 24.4679 5.23776 
1109 2 24.4608 24.4702 6.97083 
1110 2 26.2215 26.2151 6.9677 
715 2 27.9649 26.2149 5.23217 
716 2 29.7178 24.4635 5.23426 
1113 2 27.98 24.4558 6.99179 
1114 2 29.7141 26.2042 6.97578 
683 2 34.9235 26.1903 5.23563 
719 1 31.4686 26.2224 5.23978 
720 1 33.1782 24.4496 5.24174 
1081 2 34.9191 24.4481 6.98611 
1117 1 31.4504 24.4654 6.9857 
1118 2 33.1946 26.1976 6.99153 
723 2 0.0082589 29.7031 5.24563 
724 2 1.73419 27.9441 5.23696 
727 1 3.48411 29.707 5.24348 
1122 2 1.74108 29.7066 6.98921 
1125 2 3.48923 27.9476 6.98171 
728 2 5.23323 27.9581 5.24289 
731 2 6.98685 29.7001 5.24904 
1126 2 5.24079 29.6984 6.97771 
1129 2 6.9864 27.9556 7.00335 
732 2 8.74074 27.982 5.23385 
735 2 10.4733 29.7203 5.2412 
1130 1 8.73019 29.7047 7.01181 
1133 2 10.4721 27.9672 7.00712 
736 2 12.2278 27.9755 5.23492 
739 2 13.9874 29.7156 5.24612 
1134 2 12.2136 29.7164 6.97922 
1137 2 13.9748 27.9556 6.9877 
740 2 15.7293 27.9663 5.25233 
743 1 17.4665 29.7111 5.23337 
744 1 19.2212 27.9498 5.24288 
1138 2 15.7481 29.7065 6.99413 
1141 2 17.4841 27.9539 6.99622 
1142 1 19.1986 29.7008 6.97627 
747 1 20.9662 29.7255 5.24205 
748 1 22.7065 27.9636 5.2391 
1145 1 20.9625 27.9747 6.98298 
1146 1 22.7265 29.7088 6.97524 
751 2 24.4578 29.6975 5.23479 
752 1 26.2213 27.9703 5.23686 
1149 2 24.4576 27.9648 6.97343 
1150 2 26.2056 29.712 6.99266 
755 2 27.9684 29.7108 5.24325 
756 2 29.7208 27.9695 5.2492 
1153 2 27.9676 27.9602 6.98931 
1154 2 29.7172 29.7232 7.00574 
759 2 31.4596 29.7077 5.24572 
760 1 33.2098 27.9621 5.24436 
1121 2 34.9422 27.9568 6.99617 
1157 2 31.4694 27.9523 7.00186 
1158 2 33.2066 29.6995 6.98851 
764 2 1.74571 31.4525 5.24738 
767 2 3.48979 33.1985 5.23589 
1162 2 1.73256 33.2119 6.99499 
1165 2 3.49461 31.4612 6.97717 
768 2 5.23599 31.4572 5.24684 
771 2 6.98622 33.2056 5.24823 
1166 2 5.24376 33.2135 6.99433 
1169 1 6.98342 31.4469 6.98941 
412 2 8.72631 34.9391 5.25848 
772 1 8.72961 31.4487 5.25111 
775 2 10.4935 33.1904 5.24827 
813 1 10.4917 34.9383 6.98381 
1170 2 8.73637 33.2002 6.99899 
1173 2 10.4651 31.4614 6.99631 
416 2 12.2382 34.9346 5.2542 
776 1 12.2255 31.4569 5.24367 
779 1 13.9752 33.192 5.24674 
817 2 13.9598 34.9415 6.99646 
1174 1 12.2335 33.1861 6.99558 
1177 2 13.976 31.4585 6.98451 
780 1 15.7273 31.4536 5.24667 
783 2 17.4483 33.2014 5.26593 
784 2 19.2006 31.4473 5.2517 
1178 2 15.716 33.2013 7.00469 
1181 2 17.4794 31.4502 6.99951 
1182 1 19.2121 33.2015 6.98294 
787 2 20.9617 33.2027 5.2389 
788 2 22.7156 31.4513 5.24222 
825 2 20.9737 34.9407 6.97989 
1185 2 20.9528 31.4398 6.98832 
1186 2 22.7038 33.199 6.99453 
791 2 24.4745 33.2103 5.23892 
792 2 26.2277 31.4575 5.24301 
1189 2 24.4635 31.4596 6.98889 
1190 2 26.2316 33.218 6.98121 
795 2 27.9822 33.2155 5.24167 
796 1 29.7133 31.4584 5.23309 
1193 2 27.9778 31.4654 6.99411 
1194 1 29.7141 33.1961 6.99232 
763 2 34.9291 33.2076 5.24177 
799 1 31.4593 33.192 5.23439 
800 2 33.1954 31.4514 5.22863 
1161 1 34.9323 31.4476 6.99424 
1197 2 31.4552 31.4559 6.98173 
1198 2 33.1944 33.2105 6.97447 
803 1 0.00418598 1.74445 8.72353 
804 1 1.74008 0.000506811 8.73151 
807 2 3.49923 1.74891 8.73483 
844 2 1.7377 3.48969 8.73916 
1201 2 0.00743362 0.0210823 10.4631 
1202 1 1.74094 1.76071 10.4684 
1205 2 3.48334 0.0145524 10.4683 
1241 1 0.000534623 3.49548 10.477 
1245 1 3.50342 3.48228 10.4941 
808 1 5.23589 0.00580897 8.72812 
811 1 6.97165 1.73996 8.72683 
848 1 5.2459 3.49797 8.73617 
1206 1 5.24086 1.7415 10.4823 
1209 2 6.98349 0.010772 10.4773 
1249 1 6.97794 3.47613 10.482 
812 1 8.74587 0.00547751 8.72645 
815 2 10.4736 1.74334 8.7346 
852 2 8.72888 3.48776 8.75112 
1210 2 8.7212 1.73983 10.4789 
1253 1 10.4859 3.46997 10.4778 
819 2 13.9832 1.73392 8.73032 
856 1 12.2305 3.48816 8.72901 
1214 2 12.2316 1.74189 10.4781 
1257 2 13.9696 3.50047 10.4767 
823 1 17.4804 1.75695 8.75951 
860 2 15.7156 3.49043 8.75985 
864 2 19.2381 3.48532 8.75502 
1218 2 15.7365 1.73137 10.4918 
1222 1 19.2302 1.74324 10.5014 
1261 2 17.4757 3.48646 10.5014 
827 2 20.9662 1.73646 8.73089 
868 1 22.7001 3.49713 8.73272 
1226 2 22.7153 1.75834 10.471 
1265 2 20.9839 3.49198 10.4984 
831 2 24.4517 1.74358 8.73421 
832 1 26.2205 0.0173941 8.73807 
872 2 26.1886 3.50377 8.72693 
1229 2 24.4629 0.0129865 10.4843 
1230 1 26.1936 1.76568 10.4723 
1269 1 24.4487 3.50105 10.4642 
835 2 27.9608 1.75235 8.73195 
836 2 29.7085 0.00523945 8.72363 
876 2 29.7165 3.5117 8.72865 
1233 2 27.9491 0.0285585 10.4802 
1234 1 29.6986 1.75764 10.4782 
1273 2 27.9485 3.50397 10.4771 
839 2 31.455 1.76904 8.73611 
840 1 33.1859 0.00998959 8.73773 
880 1 33.1937 3.51435 8.73717 
1237 2 31.4533 0.0349172 10.4809 
1238 1 33.206 1.76779 10.4637 
1277 1 31.4434 3.487 10.4813 
843 1 0.00855758 5.24635 8.73219 
847 2 3.4984 5.23278 8.74482 
884 2 1.75934 6.97817 8.73226 
1242 2 1.74832 5.2213 10.4987 
1285 2 3.50451 6.97565 10.4768 
851 1 6.97504 5.24323 8.75569 
888 1 5.24157 6.98124 8.73759 
1246 1 5.24177 5.24343 10.4869 
1289 1 6.98591 6.99213 10.5007 
855 1 10.4919 5.23632 8.74508 