ITEM: TIMESTEP
1000
ITEM: NUMBER OF ATOMS
4001
ITEM: BOX BOUNDS pp pp pp
0.0000000000000000e+00 3.4945000000000000e+01
0.0000000000000000e+00 3.4945000000000000e+01
0.0000000000000000e+00 3.4945000000000000e+01
ITEM: ATOMS id type x y z 
2 1 1.72687 1.75166 0.00647038 
4 2 1.72901 0.00870064 1.73971 
7 1 3.49151 1.73649 1.74156 
41 1 0.0087667 3.50698 0.00239929 
44 2 1.75022 3.49039 1.7443 
45 2 3.48615 3.4915 0.0129105 
402 2 1.75208 1.7516 3.47688 
445 2 3.50284 3.49193 3.47986 
6 2 5.23382 1.74336 0.0053074 
8 2 5.25203 0.0103654 1.75453 
11 1 6.99667 1.74832 1.74318 
48 2 5.24032 3.48286 1.74367 
406 1 5.24242 1.74649 3.4922 
409 2 6.99545 0.0209694 3.502 
449 1 6.97274 3.48385 3.49792 
10 2 8.75279 1.75089 0.00628342 
12 1 8.74663 0.00863831 1.7462 
15 2 10.4901 1.73973 1.7447 
52 2 8.74041 3.48784 1.75804 
53 1 10.4889 3.49352 0.00632758 
410 2 8.72814 1.75163 3.50448 
413 2 10.4754 0.00694457 3.50454 
453 1 10.4853 3.47942 3.49864 
19 1 13.974 1.73876 1.74792 
56 2 12.2328 3.47634 1.75686 
57 2 13.965 3.47909 0.0157834 
414 1 12.2292 1.74549 3.50119 
417 2 13.9783 0.0116319 3.50567 
457 1 13.9892 3.47135 3.49816 
18 2 15.7173 1.74981 0.0100525 
23 2 17.4713 1.74126 1.76165 
24 1 19.2072 0.00598959 1.7575 
60 2 15.7137 3.49117 1.75399 
64 2 19.2121 3.47001 1.74361 
418 1 15.7201 1.73261 3.50953 
421 2 17.4732 0.00352165 3.51567 
422 1 19.2158 1.74312 3.50537 
461 2 17.4655 3.48454 3.50509 
27 1 20.9544 1.73252 1.72935 
28 1 22.706 0.00256464 1.75097 
68 2 22.7171 3.46415 1.73907 
425 1 20.9608 0.0153407 3.49867 
426 1 22.7098 1.74492 3.49424 
465 2 20.9575 3.47198 3.49894 
29 2 24.465 0.0107369 0.00196597 
31 1 24.4694 1.7399 1.74259 
32 1 26.2198 0.00260995 1.75673 
72 1 26.2085 3.50352 1.74673 
429 1 24.4758 0.0165247 3.48937 
430 1 26.2185 1.76453 3.49343 
469 2 24.4539 3.48258 3.4866 
34 2 29.6933 1.75179 0.00133534 
35 1 27.9567 1.74423 1.74305 
73 1 27.9578 3.4783 0.000587004 
76 1 29.7082 3.49182 1.75607 
433 1 27.9642 0.00652839 3.49186 
434 1 29.7213 1.75618 3.48471 
473 2 27.967 3.48657 3.48318 
3 1 34.9337 1.75378 1.74499 
39 1 31.4529 1.7604 1.71817 
80 2 33.1878 3.50144 1.72844 
401 2 34.9323 0.00251492 3.48486 
438 2 33.1734 1.74202 3.4786 
441 2 34.9305 3.4947 3.48698 
477 1 31.4569 3.49737 3.49127 
43 2 0.0108759 5.24317 1.73272 
47 1 3.50733 5.25349 1.74827 
84 2 1.75897 6.99153 1.74125 
442 2 1.75039 5.23812 3.4845 
481 2 0.00747584 6.99726 3.48842 
485 2 3.5055 6.98412 3.5021 
51 2 6.98313 5.2211 1.75245 
88 2 5.26122 6.97869 1.74813 
446 2 5.24562 5.23591 3.48726 
489 2 6.99233 6.97966 3.51745 
50 2 8.73248 5.23642 0.0112167 
55 2 10.497 5.23498 1.76537 
92 1 8.7343 6.97159 1.76484 
450 2 8.73939 5.22349 3.49799 
493 2 10.4935 6.97875 3.50894 
54 2 12.2393 5.22316 0.00468579 
59 1 13.9771 5.23335 1.74425 
96 2 12.2441 6.99422 1.73648 
97 2 13.9932 6.97488 0.0112016 
454 2 12.2502 5.21865 3.50653 
497 1 13.9807 6.99159 3.48621 
58 1 15.7109 5.23887 0.00770329 
63 2 17.4559 5.2353 1.74492 
100 1 15.7257 6.97572 1.76358 
104 2 19.1921 6.97988 1.73096 
458 2 15.7149 5.22833 3.50187 
462 1 19.2163 5.23597 3.48639 
501 2 17.4679 6.97849 3.49599 
67 2 20.9537 5.22218 1.7515 
108 2 22.7103 6.98522 1.73834 
466 2 22.6885 5.22654 3.49238 
505 2 20.9457 6.99248 3.48191 
71 2 24.4559 5.231 1.74398 
112 2 26.2246 6.9723 1.74348 
470 2 26.2137 5.23278 3.50096 
509 2 24.4699 6.99115 3.47808 
74 1 29.7076 5.23417 0.00501569 
75 2 27.9707 5.23794 1.74727 
116 1 29.6991 6.99571 1.75209 
474 2 29.7036 5.23487 3.4929 
513 1 27.954 6.98618 3.49661 
79 2 31.4409 5.245 1.74873 
120 2 33.189 6.99986 1.73035 
478 2 33.1965 5.25076 3.49023 
517 2 31.4395 6.98846 3.49417 
83 2 0.000728633 8.73497 1.73591 
87 2 3.52038 8.71918 1.7439 
124 2 1.74443 10.48 1.73854 
482 2 1.77042 8.74484 3.50014 
521 1 0.00902722 10.4656 3.49048 
525 2 3.50565 10.4841 3.50069 
91 2 6.98832 8.71731 1.75733 
128 2 5.24681 10.4783 1.74459 
129 2 7.00007 10.4816 0.0114356 
486 1 5.25207 8.71527 3.50473 
529 1 6.97418 10.4675 3.47925 
95 2 10.4897 8.73154 1.73471 
132 2 8.75443 10.4624 1.74792 
490 2 8.72199 8.73367 3.50216 
533 1 10.4815 10.4596 3.49284 
99 1 13.9848 8.73884 1.73455 
136 1 12.222 10.4793 1.75063 
137 2 13.9578 10.4825 0.00463344 
494 2 12.2413 8.73249 3.49103 
537 2 13.9647 10.4751 3.508 
103 2 17.4502 8.72875 1.73771 
140 2 15.7065 10.4831 1.75487 
144 2 19.2274 10.4763 1.73683 
498 2 15.7216 8.73402 3.50509 
502 1 19.2057 8.73438 3.47244 
541 2 17.4798 10.4928 3.49017 
107 2 20.9551 8.74168 1.72917 
148 1 22.7021 10.471 1.73955 
506 2 22.6985 8.73686 3.48306 
545 1 20.9602 10.4638 3.49904 
111 2 24.4661 8.72768 1.73069 
152 2 26.199 10.4765 1.73552 
510 2 26.2229 8.73575 3.50186 
549 2 24.4494 10.4721 3.47201 
114 1 29.7001 8.72856 0.00682813 
115 1 27.9471 8.73474 1.72484 
156 2 29.7143 10.463 1.73247 
514 2 29.6873 8.73735 3.46593 
553 1 27.9511 10.4877 3.49181 
119 1 31.4634 8.73742 1.73432 
160 1 33.2153 10.4781 1.73999 
518 2 33.2024 8.73792 3.4839 
557 2 31.4678 10.4701 3.48346 
123 2 0.0027271 12.2155 1.74432 
127 2 3.50084 12.24 1.73554 
161 2 0.00454754 13.9588 0.0100071 
164 2 1.73887 13.9774 1.75072 
522 1 1.73372 12.2256 3.49537 
565 2 3.49179 13.9678 3.49568 
131 2 6.99087 12.2394 1.75912 
168 2 5.24629 13.9801 1.74766 
169 2 6.99711 13.9948 0.0140706 
526 1 5.24581 12.2295 3.50333 
569 1 6.97364 13.981 3.49883 
135 1 10.4716 12.2203 1.75271 
172 2 8.74309 13.9816 1.76295 
530 2 8.72485 12.2257 3.50203 
573 1 10.4855 13.9827 3.50035 
139 2 13.9673 12.2309 1.75525 
176 2 12.2297 13.9651 1.75179 
177 2 13.9768 13.9902 0.0155222 
534 2 12.2132 12.2319 3.49614 
577 1 13.9773 13.9693 3.50751 
143 2 17.4667 12.2437 1.74305 
180 1 15.7254 13.9793 1.74511 
184 2 19.2007 13.9955 1.74491 
538 2 15.7269 12.2399 3.50693 
542 2 19.2332 12.2285 3.49014 
581 1 17.4713 13.98 3.50267 
146 2 22.7173 12.2332 0.0170725 
147 2 20.9688 12.2167 1.76331 
185 2 20.9514 13.9689 0.0167744 
188 2 22.7077 13.9908 1.76517 
546 1 22.7059 12.218 3.49596 
585 1 20.9716 13.9902 3.49716 
150 1 26.203 12.2138 0.00677488 
151 2 24.45 12.221 1.74604 
189 2 24.4706 13.9775 0.00467233 
192 2 26.2106 13.9905 1.74968 
550 2 26.199 12.2377 3.48648 
589 2 24.4447 13.9896 3.50277 
154 1 29.7071 12.2226 0.0135403 
155 2 27.9545 12.2157 1.74646 
193 1 27.9504 13.9719 0.00740126 
196 2 29.7152 13.9723 1.75229 
554 2 29.706 12.2251 3.48189 
593 2 27.9618 13.9631 3.49471 
158 1 33.2024 12.2159 0.00636794 
159 2 31.4669 12.2087 1.74043 
197 2 31.4459 13.955 0.00439141 
200 1 33.2034 13.9661 1.73473 
558 2 33.224 12.2124 3.48784 
561 1 34.9417 13.9714 3.48439 
597 2 31.471 13.9712 3.48827 
162 1 1.74162 15.7339 0.0102758 
163 2 0.00357159 15.7211 1.75351 
167 1 3.48847 15.7131 1.75878 
201 2 0.00344091 17.4758 0.000981588 
202 2 1.74372 19.2075 0.00487136 
203 2 0.00460027 19.2279 1.75645 
204 1 1.75163 17.4624 1.74607 
205 1 3.49228 17.4687 0.00523279 
207 1 3.47151 19.2265 1.74977 
562 2 1.74516 15.7077 3.48486 
601 2 0.00578368 17.4702 3.50548 
602 2 1.73923 19.2313 3.48949 
605 1 3.47994 17.4787 3.49794 
166 1 5.24685 15.7413 0.0114082 
171 1 6.98897 15.7277 1.76924 
206 2 5.22522 19.2125 0.00148169 
208 2 5.21278 17.4797 1.76787 
209 2 6.97555 17.4699 0.00982087 
211 2 6.96652 19.224 1.75327 
566 2 5.24462 15.7312 3.49115 
606 1 5.21037 19.2375 3.4944 
609 1 6.98097 17.4945 3.49228 
175 2 10.4793 15.7078 1.73828 
210 2 8.73164 19.2184 0.0159182 
212 2 8.72889 17.4699 1.76033 
215 2 10.4823 19.219 1.76392 
570 1 8.73818 15.7221 3.49912 
610 1 8.72172 19.2246 3.49277 
613 2 10.4784 17.4694 3.49273 
179 1 13.9757 15.7255 1.75588 
214 2 12.2396 19.2219 0.0160551 
216 2 12.2496 17.4711 1.75656 
219 2 13.9945 19.2015 1.7621 
574 2 12.2284 15.723 3.50013 
614 1 12.2348 19.2192 3.49864 
617 1 13.9742 17.4759 3.51082 
178 2 15.7227 15.7433 0.00748744 
183 2 17.4592 15.7346 1.74859 
220 1 15.7143 17.4783 1.7465 
222 2 19.2126 19.2176 0.00228267 
223 1 17.4659 19.2135 1.74004 
224 1 19.2128 17.4741 1.75248 
578 2 15.7128 15.719 3.49287 
582 2 19.2251 15.7345 3.50986 
618 1 15.7388 19.2135 3.50708 
621 2 17.4632 17.4741 3.48991 
622 2 19.2125 19.2132 3.4866 
187 2 20.9705 15.7461 1.76231 
225 2 20.9667 17.4784 0.0119666 
226 2 22.7389 19.2215 0.00552238 
227 1 20.9721 19.2115 1.75053 
228 1 22.725 17.4712 1.74521 
586 1 22.7089 15.7401 3.50489 
625 2 20.9797 17.481 3.50415 
626 2 22.7362 19.2109 3.49916 
191 2 24.4655 15.7432 1.74551 
230 1 26.2116 19.2193 0.00505241 
231 1 24.4789 19.2078 1.75741 
232 1 26.226 17.4661 1.75331 
590 1 26.2292 15.7147 3.5131 
629 1 24.4814 17.4641 3.49162 
630 1 26.2209 19.2243 3.50303 
195 2 27.9559 15.7316 1.74249 
235 1 27.96 19.2132 1.74353 
236 2 29.6979 17.4711 1.75531 
594 2 29.7071 15.7197 3.50876 
633 2 27.9547 17.4772 3.4972 
634 2 29.7007 19.2236 3.50398 
199 2 31.461 15.7204 1.7429 
239 2 31.4428 19.2264 1.74929 
240 2 33.2041 17.4728 1.74241 
598 2 33.2068 15.7291 3.49916 
637 2 31.4587 17.4744 3.5038 
638 1 33.2053 19.2103 3.48917 
242 2 1.72264 22.7255 0.00191307 
244 1 1.73046 20.9716 1.73608 
247 2 3.49491 22.7035 1.75267 
642 2 1.72944 22.7263 3.48651 
645 2 3.47444 20.9769 3.49048 
248 1 5.24222 20.9628 1.73134 
251 1 6.98879 22.712 1.73957 
646 2 5.25287 22.7045 3.49095 
649 2 6.97917 20.968 3.49817 
250 2 8.73756 22.7169 0.0171843 
252 2 8.71977 20.9785 1.75966 
255 2 10.4655 22.7225 1.75226 
650 1 8.72124 22.7255 3.49183 
653 2 10.4718 20.9595 3.49801 
254 2 12.2352 22.7212 0.0117624 
256 2 12.2329 20.9684 1.75664 
257 2 13.9922 20.9593 0.0116978 
259 2 13.9807 22.7228 1.77243 
654 2 12.22 22.7167 3.49897 
657 2 13.9898 20.9543 3.50297 
258 2 15.7338 22.712 0.00246924 
260 2 15.7432 20.9477 1.74492 
263 2 17.48 22.7163 1.75583 
264 2 19.2181 20.9463 1.74693 
658 2 15.7381 22.7004 3.5147 
661 1 17.4757 20.9554 3.5039 
662 2 19.2304 22.7143 3.49675 
265 2 20.9722 20.9781 0.0141029 
266 1 22.7082 22.709 0.0128676 
267 2 20.9808 22.7141 1.75459 
268 2 22.733 20.9566 1.75575 
665 1 20.9802 20.944 3.49455 
666 1 22.7102 22.725 3.50533 
269 1 24.4801 20.9747 0.00421247 
270 1 26.2219 22.7252 0.0152579 
271 1 24.4594 22.7252 1.76378 
272 1 26.2179 20.9771 1.76333 
669 2 24.4595 20.9733 3.48622 
670 2 26.223 22.7245 3.49159 
273 2 27.942 20.9613 0.00409749 
274 2 29.7136 22.7161 0.00424994 
275 2 27.97 22.7153 1.75995 
276 2 29.7079 20.9707 1.74068 
673 2 27.9668 20.9603 3.50107 
674 1 29.7157 22.7085 3.49479 
243 2 34.9217 22.718 1.73677 
279 1 31.4601 22.7108 1.74554 
280 1 33.1855 20.9637 1.7401 
641 1 34.9364 20.9682 3.48944 
677 2 31.4621 20.9627 3.49667 
678 2 33.1859 22.7103 3.48359 
284 1 1.7481 24.4701 1.74923 
285 2 3.48447 24.4671 0.000726508 
287 2 3.5015 26.2032 1.75413 
682 1 1.73439 26.1915 3.49244 
685 1 3.50799 24.4546 3.49338 
286 1 5.24589 26.1882 0.00739004 
288 2 5.2485 24.4519 1.74424 
289 2 6.98842 24.4716 0.0127416 
291 1 6.98192 26.2268 1.74886 
686 2 5.24141 26.2174 3.49308 
689 1 6.99108 24.4709 3.48554 
290 2 8.7187 26.2358 0.0129856 
292 1 8.72985 24.4729 1.74797 
295 2 10.4745 26.2291 1.74686 
690 2 8.73487 26.2255 3.4814 
693 2 10.4693 24.4702 3.49336 
294 2 12.246 26.2217 0.00712192 
296 2 12.2167 24.482 1.75431 
297 2 13.9933 24.4762 0.0102443 
299 2 13.987 26.2226 1.76433 
694 1 12.2313 26.2124 3.50029 
697 2 13.9833 24.4734 3.52176 
298 1 15.7358 26.204 0.00360096 
300 2 15.7433 24.4655 1.75121 
303 1 17.4691 26.2148 1.7363 
304 2 19.2155 24.4821 1.74063 
698 2 15.7159 26.2155 3.49966 
701 1 17.4638 24.4715 3.51296 
702 2 19.2106 26.2111 3.50585 
306 1 22.7086 26.2303 0.00644123 
307 2 20.9598 26.2233 1.75252 
308 2 22.7142 24.4662 1.75325 
705 1 20.974 24.4811 3.49234 
706 2 22.7341 26.2022 3.49569 
309 2 24.4449 24.4551 0.0122168 
310 2 26.2027 26.2028 0.00434408 
311 2 24.4776 26.2066 1.74958 
312 2 26.2216 24.4622 1.76383 
709 1 24.4895 24.4765 3.50114 
710 1 26.2179 26.2278 3.50257 
313 2 27.966 24.4716 0.00292206 
314 2 29.7161 26.2269 0.000973536 
315 1 27.9643 26.218 1.74693 
316 2 29.7196 24.4657 1.75952 
713 2 27.9689 24.4759 3.49733 
714 1 29.7192 26.2246 3.49921 
283 2 34.9331 26.192 1.73079 
319 2 31.4462 26.2114 1.73839 
320 1 33.1746 24.462 1.72948 
681 1 34.9135 24.4693 3.48202 
717 2 31.4568 24.4658 3.49947 
718 2 33.1892 26.2193 3.48254 
324 2 1.73843 27.9353 1.74242 
327 2 3.4945 29.6968 1.75519 
722 2 1.7519 29.6942 3.4973 
725 2 3.48254 27.9572 3.49183 
326 1 5.22816 29.7061 0.00361521 
328 2 5.24105 27.961 1.73901 
331 2 6.9813 29.6985 1.74243 
726 1 5.2274 29.7091 3.50776 
729 2 6.98472 27.9643 3.48965 
332 1 8.72147 27.976 1.74191 
333 2 10.4958 27.9813 0.0126009 
335 2 10.4802 29.7128 1.75177 
730 1 8.73021 29.7113 3.49764 
733 2 10.5008 27.9762 3.47713 
334 2 12.2362 29.7212 0.00969187 
336 1 12.2521 27.9672 1.74877 
339 2 13.979 29.7105 1.74287 
734 1 12.2473 29.7177 3.49765 
737 1 13.9757 27.9673 3.50968 
338 1 15.7223 29.7092 0.0127795 
340 2 15.7226 27.9577 1.73386 
342 1 19.2313 29.7044 0.00720067 
343 2 17.487 29.6938 1.75808 
344 1 19.2171 27.9569 1.75105 
738 2 15.7251 29.7103 3.49461 
741 2 17.4653 27.9516 3.49163 
742 2 19.2209 29.7063 3.50059 
345 2 20.9605 27.9731 0.00672176 
346 2 22.6967 29.7152 0.00498605 
347 1 20.9668 29.7195 1.74939 
348 2 22.7038 27.9674 1.76256 
745 2 20.9631 27.9579 3.50983 
746 2 22.7069 29.7175 3.50325 
349 2 24.4594 27.9577 0.00477388 
351 2 24.4612 29.7138 1.75141 
352 2 26.2234 27.9673 1.74846 
749 2 24.4689 27.9503 3.50398 
750 2 26.2187 29.7175 3.4918 
353 2 27.9653 27.9671 0.00284202 
355 1 27.9599 29.7237 1.74891 
356 2 29.7075 27.9688 1.74824 
753 2 27.9657 27.9631 3.48894 
754 2 29.7157 29.7199 3.48296 
323 2 34.9404 29.707 1.74664 
357 1 31.451 27.968 0.0117045 
359 2 31.4637 29.7149 1.74047 
360 1 33.1964 27.9589 1.73397 
721 2 34.9373 27.9428 3.48816 
757 2 31.4669 27.9714 3.4911 
758 1 33.2095 29.7044 3.5045 
363 1 0.00692485 33.1807 1.74001 
364 2 1.7391 31.4482 1.74644 
365 2 3.49726 31.4506 0.0121047 
367 2 3.47983 33.2115 1.74439 
405 2 3.49189 34.9408 3.49972 
762 2 1.73355 33.1978 3.4928 
765 1 3.48776 31.4548 3.48598 
366 1 5.2426 33.2125 0.0107292 
368 2 5.23784 31.4547 1.75027 
369 2 6.98594 31.4508 0.0034796 
371 2 7.00214 33.219 1.74708 
766 2 5.23737 33.1975 3.48079 
769 2 6.97591 31.4434 3.51413 
13 2 10.4844 34.9366 0.00732118 
370 2 8.74111 33.1841 0.0126294 
372 2 8.73202 31.4431 1.76057 
373 1 10.4735 31.4536 0.00685973 
375 1 10.4709 33.1833 1.76153 
770 2 8.73516 33.188 3.49654 
773 2 10.4809 31.4437 3.49989 
16 2 12.2239 34.9346 1.75293 
17 2 13.9744 34.9269 0.000402754 
374 1 12.2317 33.1969 0.0110454 
376 2 12.2298 31.457 1.75359 
379 1 13.987 33.185 1.76194 
774 2 12.2344 33.1936 3.49794 
777 2 13.9882 31.4485 3.50313 
20 2 15.7272 34.9425 1.76258 
380 2 15.7296 31.453 1.76081 
381 2 17.4764 31.4339 0.0115946 
383 2 17.4645 33.2003 1.75238 
384 2 19.2172 31.4571 1.73768 
778 2 15.7228 33.2088 3.51751 
781 1 17.475 31.4607 3.50795 
782 2 19.2094 33.2152 3.49823 
25 2 20.9584 34.9374 0.000834829 
385 1 20.9667 31.4626 0.000530872 
387 2 20.9587 33.2125 1.74319 
388 2 22.7084 31.4734 1.74519 
785 2 20.9543 31.471 3.48752 
786 2 22.7245 33.2267 3.48969 
391 2 24.4687 33.2229 1.74636 
392 2 26.2157 31.474 1.73816 
789 2 24.4677 31.4736 3.49539 
790 1 26.2162 33.1976 3.50555 
36 1 29.7187 34.9455 1.7479 
395 2 27.9735 33.2139 1.73845 
396 2 29.7181 31.4632 1.73666 
793 2 27.9761 31.4712 3.49202 
794 1 29.7231 33.2006 3.48945 
1 1 34.9392 34.9348 0.00635285 
37 2 31.4627 34.9415 0.00106547 
40 2 33.1943 34.9293 1.73789 
398 2 33.1992 33.1736 0.0016828 
399 1 31.4606 33.1785 1.73689 
400 1 33.2106 31.4481 1.75382 
437 1 31.4508 34.9452 3.47993 
761 2 34.9435 31.4543 3.50212 
797 1 31.4626 31.449 3.48764 
798 1 33.2085 33.2066 3.48891 
404 2 1.74039 0.0145765 5.25657 
407 2 3.50294 1.74776 5.2262 
444 1 1.74361 3.49108 5.22398 
802 2 1.74741 1.74689 6.99006 
805 1 3.49905 0.0108688 6.98542 
845 2 3.48113 3.49242 6.99133 
408 1 5.24002 0.00143409 5.22446 
411 1 6.9835 1.73993 5.25362 
448 2 5.23575 3.48609 5.24806 
806 1 5.23366 1.74426 6.98135 
809 1 6.98455 0.00444626 6.99318 
849 2 6.98375 3.48507 6.99872 
415 2 10.4886 1.75212 5.25365 
452 2 8.73341 3.48666 5.23804 
810 1 8.73528 1.75266 6.99154 
853 2 10.4928 3.49321 6.99653 
419 1 13.9617 1.74128 5.26139 
456 2 12.242 3.48522 5.25326 
814 1 12.2249 1.74463 7.00747 
857 1 13.9885 3.46934 7.0022 
420 1 15.7157 0.0161299 5.26415 
423 1 17.4761 1.75374 5.25074 
424 2 19.2108 0.00732855 5.24088 
460 2 15.7124 3.47407 5.25226 
464 2 19.2348 3.49307 5.24358 
818 2 15.7297 1.75087 6.99342 
821 2 17.477 0.0087385 7.00511 
822 2 19.2215 1.75004 6.99526 
861 2 17.4656 3.4988 7.00751 
427 1 20.9753 1.73572 5.25363 
428 2 22.7276 0.017503 5.23759 
468 1 22.698 3.49292 5.23029 
826 1 22.724 1.74427 6.99573 
865 2 20.9801 3.49078 6.98172 
431 2 24.4603 1.75472 5.22957 
432 1 26.2212 0.00931192 5.23722 
472 2 26.2023 3.49929 5.2368 
829 2 24.4645 0.00108883 6.98784 
830 2 26.2127 1.74856 6.98234 
869 2 24.4398 3.50275 6.99229 
435 1 27.9582 1.74981 5.23784 
436 2 29.7186 0.00438475 5.22741 
476 2 29.7089 3.49125 5.23366 
833 2 27.9678 0.0129158 6.97928 
834 1 29.7171 1.75703 6.98215 
873 2 27.967 3.50037 6.97889 
403 2 34.9328 1.75134 5.23815 
439 1 31.4598 1.755 5.24579 
440 1 33.1871 0.00894584 5.22197 
480 2 33.2035 3.48837 5.24499 
801 1 34.9267 0.00896261 6.98538 
837 2 31.4601 0.00306329 6.9692 
838 2 33.1906 1.74877 7.00083 
841 1 34.9409 3.49266 6.98456 
877 2 31.4566 3.51595 6.98795 
443 2 0.000846534 5.2333 5.24484 
447 2 3.49321 5.23271 5.22858 
484 2 1.75818 6.97746 5.24189 
842 2 1.74322 5.2364 6.97998 
881 2 0.0029862 6.97704 6.98649 
885 1 3.49062 6.97108 6.98291 
451 2 6.99479 5.22866 5.25334 
488 1 5.24418 6.97627 5.24174 
846 2 5.23895 5.24451 7.00279 
889 1 6.9913 6.96556 6.98816 
455 1 10.4823 5.22874 5.24179 
492 2 8.73084 6.98521 5.24586 
850 2 8.74162 5.22523 7.008 
893 1 10.4741 6.96983 6.9905 
459 1 13.987 5.2345 5.25951 
496 2 12.241 6.97755 5.25842 
854 2 12.2381 5.22999 6.99474 
897 1 13.9795 6.98616 6.99755 
463 2 17.4788 5.22554 5.26183 
500 2 15.7128 6.98977 5.2529 
504 2 19.2155 6.98286 5.24263 
858 1 15.7128 5.23111 7.00045 
862 1 19.2345 5.22534 7.00363 
901 1 17.4887 6.98326 6.98907 
467 1 20.9575 5.25221 5.24068 
508 2 22.7215 6.97552 5.24231 
866 2 22.6942 5.2396 6.98759 
905 2 20.9535 6.99122 6.98888 
471 2 24.4545 5.25206 5.23503 
512 1 26.212 7.00008 5.22747 
870 2 26.2188 5.26361 6.97858 
909 2 24.4685 7.00393 6.98664 
475 1 27.9557 5.235 5.23404 
516 2 29.6903 6.98323 5.2354 
874 1 29.7063 5.25771 6.97916 
913 2 27.9606 6.99845 6.97767 
479 2 31.4456 5.23917 5.2475 
520 2 33.1957 7.00305 5.23888 
878 2 33.1918 5.24954 6.99612 
917 1 31.4511 6.99955 6.97766 
483 2 0.00823429 8.73797 5.23836 
487 2 3.50884 8.72233 5.25886 
524 2 1.73746 10.4829 5.24388 
882 1 1.73797 8.72124 6.99039 
925 1 3.49004 10.4751 6.98206 
491 1 6.98229 8.73943 5.25227 
528 2 5.25405 10.4674 5.25682 
886 1 5.24901 8.71182 6.99662 
929 1 6.9775 10.4873 7.00198 
495 2 10.4789 8.72992 5.25565 
532 1 8.72434 10.4826 5.24597 
890 2 8.72228 8.74248 6.98522 
933 1 10.4843 10.4807 7.00245 
499 1 13.9736 8.74156 5.25441 
536 2 12.2229 10.4837 5.24415 
894 2 12.2377 8.73196 6.99824 
937 1 13.9794 10.4951 6.99205 
503 2 17.4697 8.72954 5.24966 
540 1 15.7323 10.4714 5.24828 
544 2 19.2113 10.472 5.23153 
898 1 15.7096 8.73457 6.98415 
902 1 19.2345 8.74684 6.98654 
941 2 17.4668 10.4636 6.98639 
507 2 20.9653 8.72889 5.22998 
548 2 22.7112 10.4858 5.21966 
906 2 22.7133 8.73058 6.99018 
945 2 20.9677 10.4805 6.96702 
511 1 24.4444 8.73404 5.22482 
552 2 26.2138 10.4782 5.22953 
910 1 26.2147 8.73902 6.96236 
949 2 24.4607 10.4696 6.98763 
515 1 27.9722 8.73525 5.23528 
556 2 29.7098 10.4934 5.22348 
914 2 29.7015 8.72777 6.99455 
953 2 27.9752 10.4732 6.96478 
519 2 31.4365 8.73968 5.23027 
560 1 33.2027 10.4642 5.24084 
918 2 33.2002 8.74325 6.99211 
921 2 34.9409 10.4821 6.98539 
957 1 31.4437 10.4748 6.98186 
527 2 3.48707 12.2227 5.23921 
564 1 1.74654 13.9619 5.23556 
922 2 1.7439 12.2256 6.97643 
965 2 3.4822 13.9692 6.99458 
531 2 6.98163 12.2191 5.24913 
568 2 5.22893 13.9829 5.25152 
926 1 5.23413 12.2352 6.99654 
969 1 6.97854 13.9879 6.98946 
535 2 10.4747 12.2138 5.23067 
572 2 8.73295 13.9671 5.23596 
930 1 8.74126 12.2251 6.9905 
973 2 10.465 13.9666 6.97329 
539 2 13.9779 12.226 5.25254 
576 1 12.2131 13.9804 5.24911 
934 2 12.2136 12.2242 6.99179 
977 2 13.9715 13.9628 6.97991 
543 2 17.4787 12.2426 5.2434 
580 1 15.729 13.9785 5.258 
584 2 19.2242 13.9956 5.22987 
938 2 15.7277 12.2143 6.98633 
942 2 19.225 12.2282 6.98483 
981 2 17.4784 13.9903 6.98253 
547 1 20.9565 12.2207 5.22483 
588 1 22.7024 13.9688 5.24101 
946 2 22.7135 12.2228 6.967 
985 2 20.9644 13.9926 6.96632 
551 2 24.4558 12.2205 5.24053 
592 1 26.2045 13.9607 5.23456 
950 2 26.2114 12.2177 6.97978 
989 2 24.4685 13.9731 6.98808 
555 1 27.9639 12.2394 5.2299 
596 1 29.7242 13.9593 5.23832 
954 2 29.7183 12.2218 6.97585 
993 2 27.9582 13.9572 6.97343 
523 1 34.9427 12.2157 5.23796 
559 2 31.4642 12.2141 5.23502 
600 2 33.215 13.9694 5.2318 
958 1 33.1973 12.2195 6.97842 
961 1 34.9444 13.9731 6.97836 
997 2 31.4731 13.9606 6.98687 
563 1 0.00602481 15.7153 5.23474 
567 2 3.47749 15.7248 5.2272 
604 2 1.73431 17.4731 5.23264 
607 2 3.48659 19.2383 5.22921 
962 2 1.73441 15.7112 6.98307 
1001 1 0.00192804 17.4735 6.99686 
1002 2 1.72983 19.221 6.99293 
1005 2 3.47683 17.4663 6.96451 
571 2 6.97928 15.7332 5.23276 
608 1 5.23331 17.4591 5.2281 
611 1 6.9675 19.2172 5.2306 
966 1 5.21969 15.7315 6.98626 
1006 2 5.22932 19.2087 6.961 
1009 2 6.97024 17.4579 6.97855 
575 2 10.4737 15.7323 5.2409 
612 2 8.71635 17.492 5.2346 
615 1 10.482 19.2094 5.22742 
970 2 8.71188 15.7155 6.98272 
1010 2 8.72146 19.2212 6.98458 
1013 2 10.4665 17.4782 6.98731 
579 2 13.983 15.7106 5.2446 
616 2 12.2289 17.4694 5.2406 
619 2 13.9704 19.2284 5.23765 
974 2 12.2255 15.724 6.98884 
1014 2 12.2214 19.2217 6.97913 
1017 2 13.99 17.4695 6.97999 
583 1 17.4626 15.7296 5.23372 
620 2 15.7347 17.4647 5.23584 
623 2 17.4753 19.2155 5.24277 
624 1 19.2098 17.4764 5.25127 
978 2 15.7384 15.7236 6.9988 
982 1 19.2194 15.7236 6.97398 
1018 2 15.7256 19.2174 6.99736 
1021 1 17.4687 17.4669 6.99118 
1022 2 19.2319 19.198 6.99939 
587 1 20.977 15.744 5.23453 
627 2 20.9814 19.205 5.24177 
628 1 22.7316 17.4813 5.25363 
986 2 22.705 15.7391 6.97132 
1025 1 20.9677 17.4677 6.99176 
1026 1 22.724 19.2198 6.98921 
591 2 24.4545 15.719 5.23821 
631 2 24.4737 19.2157 5.23431 
632 2 26.2175 17.4562 5.22921 
990 2 26.2158 15.7077 6.98432 
1029 1 24.4842 17.4673 6.9814 
1030 2 26.2111 19.218 6.97367 
595 2 27.9758 15.7052 5.24302 
635 1 27.9586 19.2106 5.24857 
636 1 29.711 17.478 5.246 
994 2 29.7235 15.7145 6.98153 
1033 2 27.9561 17.4675 6.97577 
1034 2 29.7161 19.2261 6.99053 
599 2 31.4624 15.7251 5.25332 
603 1 34.9415 19.2137 5.22827 
639 2 31.4633 19.2113 5.24938 
640 1 33.2097 17.4725 5.25626 
998 1 33.2125 15.717 6.97858 
1037 2 31.4688 17.4715 6.98798 
1038 2 33.2109 19.2181 6.99384 
644 1 1.72749 20.9775 5.2555 
647 1 3.47777 22.7249 5.2289 
1042 2 1.72247 22.7223 6.98384 
1045 2 3.48852 20.9831 6.98151 
648 1 5.23521 20.9845 5.24254 
651 1 6.99057 22.7155 5.23001 
1046 2 5.24253 22.7362 6.97616 
1049 2 6.97842 20.9746 6.98556 
652 1 8.73177 20.9624 5.23116 
655 2 10.468 22.7059 5.23918 
1050 2 8.71879 22.7135 6.97731 
1053 2 10.473 20.9568 6.98671 
656 2 12.2136 20.9667 5.24675 
659 1 13.9674 22.7044 5.24573 
1054 2 12.2282 22.7192 6.99876 
1057 2 13.974 20.9763 6.99162 
660 2 15.7341 20.9686 5.24904 
663 1 17.4938 22.6978 5.24894 
664 2 19.2369 20.9516 5.23741 
1058 2 15.7234 22.7169 6.98898 
1061 2 17.4881 20.956 6.99297 
1062 2 19.234 22.7248 6.98889 
667 2 20.9681 22.729 5.23001 
668 1 22.7179 20.9741 5.23331 
1065 2 20.9788 20.9628 6.97871 
1066 2 22.7185 22.714 6.97716 
671 2 24.481 22.7315 5.22349 
672 2 26.2193 20.9777 5.23766 
1069 2 24.4655 20.9601 6.97661 
1070 2 26.2349 22.716 6.98455 
675 1 27.9731 22.7151 5.23962 
676 2 29.707 20.9624 5.25305 
1073 2 27.9775 20.9757 6.98476 
1074 1 29.7123 22.718 6.99076 
643 1 34.9299 22.7236 5.21967 
679 2 31.4479 22.7173 5.2473 
680 2 33.2104 20.9625 5.2285 
1041 2 34.9305 20.9644 6.97677 
1077 1 31.4579 20.9626 6.9847 
1078 1 33.2017 22.7114 6.98304 
684 2 1.72607 24.452 5.21117 
687 2 3.50078 26.2019 5.22793 
1082 2 1.75108 26.2007 6.97539 
1085 2 3.48922 24.4671 6.96486 
688 2 5.25415 24.4587 5.22777 
691 1 6.99776 26.2357 5.22893 
1086 1 5.24666 26.2026 6.97858 
1089 2 6.99076 24.4797 6.97826 
692 2 8.72295 24.462 5.22474 
695 2 10.4798 26.2194 5.24083 
1090 2 8.71729 26.2289 6.98961 
1093 2 10.4798 24.469 6.98927 
696 2 12.2338 24.4637 5.24596 
699 1 13.9587 26.2246 5.25151 
1094 2 12.2228 26.2139 6.99105 
1097 1 13.9707 24.4643 6.99575 
700 2 15.7192 24.4563 5.25929 
703 1 17.4642 26.2141 5.24025 
704 2 19.2248 24.4796 5.23973 
1098 2 15.7314 26.208 6.99147 
1101 2 17.4785 24.4683 6.9746 
1102 1 19.2203 26.2042 6.98066 
707 1 20.9853 26.2049 5.24307 
708 2 22.7282 24.4713 5.24335 
1105 1 20.9772 24.4709 6.99912 
1106 2 22.7026 26.2291 6.99671 
711 1 24.4692 26.2195 5.24471 
712 1 26.2378 24.4684 5.23762 
1109 2 24.4609 24.4705 6.97095 
1110 2 26.2213 26.2153 6.96788 
715 2 27.9648 26.2155 5.23212 
716 2 29.7178 24.4643 5.2339 
1113 2 27.9802 24.4566 6.99146 
1114 2 29.714 26.2049 6.97559 
683 2 34.9234 26.1911 5.23515 
719 1 31.4685 26.2231 5.23948 
720 1 33.1782 24.4504 5.24123 
1081 2 34.9192 24.449 6.98534 
1117 1 31.4506 24.4663 6.98514 
1118 2 33.1946 26.1985 6.99104 
723 2 0.00808862 29.7037 5.2454 
724 2 1.73409 27.9449 5.23655 
727 1 3.48421 29.7076 5.24323 
1122 2 1.74102 29.7074 6.98886 
1125 2 3.48915 27.9485 6.9812 
728 2 5.23337 27.9588 5.24258 
731 2 6.98728 29.7006 5.24902 
1126 2 5.24103 29.6991 6.97745 
1129 2 6.98663 27.9563 7.00305 
732 2 8.74121 27.9824 5.23392 
735 2 10.474 29.7204 5.24155 
1130 1 8.73079 29.705 7.01193 
1133 2 10.4729 27.9673 7.0075 
736 2 12.2285 27.9755 5.23541 
739 2 13.9881 29.7153 5.24682 
1134 2 12.2145 29.7161 6.97988 
1137 2 13.9758 27.955 6.98869 
740 2 15.7298 27.9659 5.25309 
743 1 17.4668 29.7106 5.23429 
744 1 19.2212 27.9494 5.24362 
1138 2 15.7488 29.7055 6.9955 
1141 2 17.4843 27.9527 6.9977 
1142 1 19.1986 29.6998 6.97763 
747 1 20.9659 29.725 5.24298 
748 1 22.7062 27.9634 5.2397 
1145 1 20.9622 27.9738 6.98412 
1146 1 22.726 29.7081 6.97638 
751 2 24.4572 29.6974 5.23549 
752 1 26.2208 27.9705 5.23717 
1149 2 24.4571 27.9644 6.97417 
1150 2 26.2049 29.7119 6.99334 
755 2 27.9678 29.711 5.2435 
756 2 29.7205 27.97 5.24918 
1153 2 27.9671 27.9605 6.98952 
1154 2 29.7166 29.7235 7.00591 
759 2 31.4592 29.7081 5.24568 
760 1 33.2095 27.9628 5.24409 
1121 2 34.9421 27.9577 6.99574 
1157 2 31.4691 27.953 7.00169 
1158 2 33.2063 29.7001 6.98833 
764 2 1.7457 31.453 5.24722 
767 2 3.49002 33.1988 5.23584 
1162 2 1.73263 33.2121 6.99488 
1165 2 3.49481 31.4617 6.977 
768 2 5.23637 31.4576 5.24679 
771 2 6.98684 33.2058 5.24835 
1166 2 5.24421 33.2137 6.99434 
1169 1 6.98401 31.4472 6.98946 
412 2 8.72704 34.9391 5.25879 
772 1 8.73029 31.4489 5.25134 
775 2 10.4944 33.1904 5.24874 
813 1 10.4925 34.9383 6.98433 
1170 2 8.73718 33.2003 6.99935 
1173 2 10.4659 31.4613 6.99677 
416 2 12.239 34.9345 5.25477 
776 1 12.2262 31.4568 5.24428 
779 1 13.9758 33.1917 5.24749 
817 2 13.9605 34.9414 6.99728 
1174 1 12.2343 33.1859 6.9963 
1177 2 13.9767 31.458 6.98546 
780 1 15.7278 31.4532 5.2476 
783 2 17.4486 33.201 5.26688 
784 2 19.2006 31.4468 5.25279 
1178 2 15.7166 33.2008 7.00571 
1181 2 17.4797 31.4492 7.00095 
1182 1 19.2121 33.2009 6.98413 
787 2 20.9614 33.2023 5.23972 
788 2 22.7151 31.4509 5.24309 
825 2 20.9734 34.9404 6.98072 
1185 2 20.9525 31.439 6.9897 
1186 2 22.7032 33.1985 6.99556 
791 2 24.4739 33.21 5.23946 
792 2 26.227 31.4574 5.24346 
1189 2 24.4628 31.4592 6.98989 
1190 2 26.2309 33.2177 6.98176 
795 2 27.9815 33.2154 5.24194 
796 1 29.7128 31.4585 5.23322 
1193 2 27.977 31.4654 6.99453 
1194 1 29.7135 33.1961 6.99257 
763 2 34.9289 33.2078 5.24167 
799 1 31.4588 33.192 5.23444 
800 2 33.1951 31.4517 5.22858 
1161 1 34.9321 31.4481 6.99407 
1197 2 31.4546 31.4561 6.9818 
1198 2 33.194 33.2106 6.97446 
803 1 0.00413734 1.74423 8.72348 
804 1 1.74017 0.000552032 8.73146 
807 2 3.49954 1.74878 8.73484 
844 2 1.73782 3.48936 8.73906 
1201 2 0.00734987 0.0210334 10.4631 
1202 1 1.74106 1.76052 10.4683 
1205 2 3.48369 0.0145915 10.4683 
1241 1 0.000568858 3.4951 10.4769 
1245 1 3.50367 3.482 10.494 
808 1 5.2364 0.00585812 8.72818 
811 1 6.97226 1.73993 8.72701 
848 1 5.24629 3.49775 8.73615 
1206 1 5.24136 1.74144 10.4824 
1209 2 6.98421 0.0108209 10.4775 
1249 1 6.97844 3.47608 10.4821 
812 1 8.74668 0.0055102 8.72682 
815 2 10.4744 1.74345 8.7351 
852 2 8.72951 3.48776 8.75138 
1210 2 8.72195 1.73995 10.4793 
1253 1 10.4867 3.47032 10.4782 
819 2 13.9839 1.73419 8.73108 
856 1 12.2313 3.48848 8.72957 
1214 2 12.2325 1.74226 10.4787 
1257 2 13.9703 3.50148 10.4775 
823 1 17.4806 1.75731 8.76041 
860 2 15.716 3.49111 8.76065 
864 2 19.2381 3.48589 8.75577 
1218 2 15.737 1.73193 10.4927 
1222 1 19.2302 1.74376 10.5023 
1261 2 17.4759 3.48748 10.5022 
827 2 20.9659 1.73661 8.73162 
868 1 22.6998 3.49724 8.73321 
1226 2 22.7148 1.75857 10.4717 
1265 2 20.9837 3.49274 10.4992 
831 2 24.4512 1.74344 8.73476 
832 1 26.2198 0.0170645 8.73863 
872 2 26.1883 3.50349 8.72716 
1229 2 24.4623 0.0128339 10.485 
1230 1 26.1931 1.76549 10.4727 
1269 1 24.4484 3.50109 10.4646 
835 2 27.9603 1.75203 8.73221 
836 2 29.7079 0.00500681 8.72387 
876 2 29.7163 3.51129 8.72869 
1233 2 27.9484 0.0282638 10.4806 
1234 1 29.6982 1.75728 10.4783 
1273 2 27.9482 3.50362 10.4772 
839 2 31.4547 1.76873 8.73615 
840 1 33.1856 0.00990631 8.73773 
880 1 33.1936 3.51395 8.73708 
1237 2 31.4529 0.0346958 10.4809 
1238 1 33.2058 1.76752 10.4637 
1277 1 31.4433 3.48657 10.4813 
843 1 0.00859846 5.24586 8.73198 
847 2 3.49859 5.23236 8.74465 
884 2 1.75944 6.9776 8.73191 
1242 2 1.74843 5.22086 10.4985 
1285 2 3.50457 6.97515 10.4765 
851 1 6.97539 5.24299 8.75565 
888 1 5.24169 6.9808 8.7373 
1246 1 5.242 5.24313 10.4868 
1289 1 6.98599 6.99187 10.5005 
855 1 10.4925 5.23642 8.7453 
892 2 8.7294 6.96536 8.74253 