ITEM: TIMESTEP
1000
ITEM: NUMBER OF ATOMS
4001
ITEM: BOX BOUNDS pp pp pp
0.0000000000000000e+00 3.4945000000000000e+01
0.0000000000000000e+00 3.4945000000000000e+01
0.0000000000000000e+00 3.4945000000000000e+01
ITEM: ATOMS id type x y z 
2 1 1.72679 1.75229 0.00636992 
4 2 1.72891 0.00891965 1.73963 
7 1 3.49108 1.73713 1.7415 
41 1 0.00905169 3.50784 0.00222253 
44 2 1.75024 3.49131 1.7442 
45 2 3.48587 3.4925 0.0128814 
402 2 1.75201 1.75221 3.47678 
445 2 3.50259 3.49293 3.47977 
6 2 5.23308 1.7441 0.00526663 
8 2 5.2512 0.0106789 1.75447 
11 1 6.99564 1.74898 1.74306 
48 2 5.23969 3.48383 1.74361 
406 1 5.24167 1.74711 3.49205 
409 2 6.99436 0.0213195 3.50168 
449 1 6.97187 3.4847 3.49778 
10 2 8.75155 1.75159 0.00629331 
12 1 8.74534 0.00898173 1.74601 
15 2 10.4888 1.7403 1.74442 
52 2 8.73927 3.48866 1.75784 
53 1 10.4878 3.4943 0.00626478 
410 2 8.72697 1.75222 3.50405 
413 2 10.474 0.00734544 3.50392 
453 1 10.4841 3.48007 3.49818 
19 1 13.973 1.73927 1.74745 
56 2 12.2316 3.47697 1.75654 
57 2 13.964 3.47965 0.01558 
414 1 12.2279 1.74601 3.50046 
417 2 13.9772 0.0121094 3.50471 
457 1 13.9883 3.4717 3.49749 
18 2 15.7165 1.75031 0.0098761 
23 2 17.4709 1.74166 1.76104 
24 1 19.2071 0.00639012 1.75694 
60 2 15.713 3.49148 1.75349 
64 2 19.2121 3.47029 1.74299 
418 1 15.7193 1.73298 3.50858 
421 2 17.4727 0.0040025 3.51457 
422 1 19.2158 1.74347 3.50433 
461 2 17.4651 3.4847 3.50424 
27 1 20.9547 1.73284 1.72874 
28 1 22.7066 0.00282918 1.75045 
68 2 22.7177 3.46442 1.73856 
425 1 20.961 0.0156499 3.49765 
426 1 22.7104 1.74512 3.49337 
465 2 20.9578 3.4721 3.49809 
29 2 24.4657 0.0109469 0.00178267 
31 1 24.4701 1.74015 1.74204 
32 1 26.2208 0.00274243 1.75629 
72 1 26.2093 3.50382 1.74624 
429 1 24.4766 0.0167141 3.48855 
430 1 26.2194 1.76471 3.49273 
469 2 24.4547 3.48272 3.4859 
34 2 29.6941 1.75214 0.00108269 
35 1 27.9577 1.74449 1.74262 
73 1 27.9586 3.47874 0.000243171 
76 1 29.7091 3.49228 1.75569 
433 1 27.9652 0.00657938 3.49127 
434 1 29.7223 1.75642 3.48425 
473 2 27.968 3.48683 3.48264 
36 1 29.7196 0.000536622 1.7476 
3 1 34.934 1.75431 1.74482 
39 1 31.4538 1.76074 1.71788 
80 2 33.1884 3.50211 1.72821 
401 2 34.9327 0.00256227 3.48465 
438 2 33.1741 1.74228 3.47838 
441 2 34.9309 3.49547 3.48684 
477 1 31.4578 3.49783 3.49093 
437 1 31.4516 0.00026391 3.47962 
43 2 0.0112708 5.24419 1.73256 
47 1 3.50719 5.25471 1.7483 
84 2 1.75923 6.99283 1.74128 
442 2 1.75063 5.23928 3.48462 
481 2 0.00812187 6.99842 3.4885 
485 2 3.5057 6.98547 3.50246 
51 2 6.9824 5.22215 1.75247 
88 2 5.26098 6.98 1.74832 
446 2 5.24527 5.23712 3.48744 
489 2 6.99196 6.98085 3.51779 
50 2 8.73153 5.23741 0.0111168 
55 2 10.496 5.23573 1.76517 
92 1 8.73355 6.9725 1.76487 
450 2 8.73845 5.22437 3.49789 
493 2 10.4927 6.97937 3.50889 
54 2 12.2384 5.22373 0.00453651 
59 1 13.9763 5.23363 1.74391 
96 2 12.2433 6.99451 1.73627 
97 2 13.9925 6.975 0.0109568 
454 2 12.2491 5.21908 3.50611 
497 1 13.9799 6.9916 3.48589 
58 1 15.7102 5.23904 0.00746743 
63 2 17.4554 5.23528 1.74448 
100 1 15.725 6.9756 1.76319 
104 2 19.1919 6.97954 1.73044 
458 2 15.7142 5.22837 3.50135 
462 1 19.2162 5.2358 3.48574 
501 2 17.4674 6.97803 3.49542 
67 2 20.9539 5.22223 1.75097 
108 2 22.7106 6.9851 1.73786 
466 2 22.6888 5.22652 3.49167 
505 2 20.9457 6.99208 3.48129 
71 2 24.4566 5.23119 1.7435 
112 2 26.2252 6.97256 1.74302 
470 2 26.2146 5.23291 3.50038 
509 2 24.4704 6.99099 3.47748 
74 1 29.7084 5.23484 0.00465711 
75 2 27.9715 5.23836 1.74681 
116 1 29.6998 6.99635 1.75173 
474 2 29.7045 5.23531 3.49245 
513 1 27.9548 6.98643 3.49613 
79 2 31.4417 5.2457 1.74842 
120 2 33.1897 7.00088 1.73015 
478 2 33.1972 5.25157 3.49003 
517 2 31.4403 6.98916 3.49387 
83 2 0.00134224 8.73619 1.7359 
87 2 3.52065 8.72052 1.74415 
124 2 1.74498 10.4812 1.73871 
482 2 1.77109 8.74614 3.50058 
521 1 0.00981123 10.4667 3.49088 
525 2 3.50629 10.4854 3.50151 
91 2 6.988 8.71843 1.75759 
128 2 5.24703 10.4794 1.74496 
129 2 6.99992 10.4824 0.0114184 
486 1 5.25222 8.71663 3.50534 
529 1 6.97442 10.4685 3.47995 
95 2 10.4891 8.73197 1.7347 
132 2 8.75412 10.463 1.74811 
490 2 8.72169 8.73453 3.50254 
533 1 10.4813 10.4599 3.49301 
99 1 13.9841 8.73869 1.73425 
136 1 12.2215 10.4793 1.75047 
137 2 13.9573 10.4823 0.0045106 
494 2 12.2407 8.73258 3.49089 
537 2 13.9642 10.4746 3.5076 
103 2 17.4499 8.72833 1.73731 
140 2 15.706 10.4826 1.75445 
144 2 19.2272 10.4758 1.73644 
498 2 15.721 8.73348 3.5046 
502 1 19.2054 8.73358 3.47176 
541 2 17.4793 10.4918 3.48948 
107 2 20.9551 8.74122 1.72872 
148 1 22.7022 10.4707 1.73926 
506 2 22.6986 8.7363 3.48256 
545 1 20.96 10.463 3.49848 
111 2 24.4664 8.72765 1.73032 
152 2 26.1992 10.4767 1.73527 
510 2 26.2233 8.73568 3.50141 
549 2 24.4494 10.4717 3.4717 
114 1 29.7006 8.72931 0.00648726 
115 1 27.9476 8.73515 1.72449 
156 2 29.7147 10.4636 1.73224 
514 2 29.6879 8.73782 3.46563 
553 1 27.9515 10.4878 3.49156 
119 1 31.4641 8.73826 1.73408 
160 1 33.2158 10.4791 1.73994 
518 2 33.2032 8.73891 3.48388 
557 2 31.4684 10.4707 3.48344 
123 2 0.0033853 12.2164 1.74456 
127 2 3.50139 12.2409 1.73592 
161 2 0.00501531 13.9595 0.0100435 
164 2 1.73951 13.9779 1.75126 
522 1 1.73459 12.2266 3.49619 
565 2 3.49273 13.9685 3.49681 
131 2 6.991 12.24 1.75949 
168 2 5.24683 13.9806 1.74822 
169 2 6.99729 13.9953 0.0142196 
526 1 5.24647 12.2305 3.50427 
569 1 6.97436 13.9815 3.49973 
135 1 10.4714 12.2204 1.75277 
172 2 8.74321 13.9819 1.76321 
530 2 8.72508 12.2262 3.50264 
573 1 10.4857 13.9826 3.50052 
139 2 13.9669 12.2305 1.75489 
176 2 12.2296 13.9649 1.75166 
177 2 13.9766 13.9899 0.0154578 
534 2 12.213 12.2316 3.49592 
577 1 13.9771 13.9686 3.50706 
143 2 17.4665 12.2431 1.74273 
180 1 15.7252 13.9789 1.74489 
184 2 19.2006 13.995 1.74485 
538 2 15.7264 12.2389 3.50625 
542 2 19.2329 12.2276 3.48965 
581 1 17.4711 13.9792 3.50223 
146 2 22.7172 12.233 0.016972 
147 2 20.9686 12.2163 1.76314 
185 2 20.9512 13.9687 0.0167622 
188 2 22.7074 13.9905 1.76537 
546 1 22.7056 12.2174 3.49584 
585 1 20.9712 13.9894 3.49728 
150 1 26.2029 12.214 0.00658976 
151 2 24.4499 12.2208 1.74601 
189 2 24.4702 13.9775 0.00459393 
192 2 26.2103 13.9905 1.74985 
550 2 26.1988 12.2374 3.48645 
589 2 24.4441 13.9893 3.50327 
154 1 29.7072 12.2232 0.0132942 
155 2 27.9545 12.216 1.74636 
193 1 27.9501 13.9721 0.00726034 
196 2 29.7151 13.9726 1.75238 
554 2 29.7063 12.2254 3.48187 
593 2 27.9614 13.963 3.49499 
158 1 33.2028 12.2168 0.00623408 
159 2 31.4672 12.2094 1.74038 
197 2 31.446 13.9556 0.00430406 
200 1 33.2038 13.9667 1.73494 
558 2 33.2247 12.2131 3.48818 
561 1 34.9425 13.9719 3.48508 
597 2 31.4714 13.9715 3.48858 
162 1 1.74217 15.7341 0.0104834 
163 2 0.00420659 15.7213 1.75403 
167 1 3.48914 15.7133 1.75946 
201 2 0.00390495 17.4756 0.00115367 
202 2 1.74428 19.2071 0.00520572 
203 2 0.00510038 19.2273 1.75709 
204 1 1.7523 17.4623 1.74677 
205 1 3.4928 17.4685 0.00554617 
207 1 3.47214 19.2259 1.75062 
562 2 1.7461 15.708 3.48589 
601 2 0.0065326 17.4701 3.50643 
602 2 1.74003 19.2308 3.49067 
605 1 3.48092 17.4786 3.49932 
166 1 5.24722 15.7415 0.0116148 
171 1 6.98937 15.7279 1.76987 
206 2 5.22558 19.212 0.00190108 
208 2 5.2134 17.4796 1.76873 
209 2 6.97585 17.4698 0.0101525 
211 2 6.96704 19.2234 1.75408 
566 2 5.24551 15.7314 3.49241 
606 1 5.21137 19.237 3.49581 
609 1 6.9819 17.4943 3.49349 
175 2 10.4795 15.7077 1.7384 
210 2 8.73174 19.218 0.0161723 
212 2 8.72925 17.4698 1.76077 
215 2 10.4826 19.2187 1.76424 
570 1 8.7388 15.7222 3.49977 
610 1 8.72249 19.2241 3.49367 
613 2 10.479 17.4691 3.493 
179 1 13.9757 15.7251 1.75575 
214 2 12.2396 19.2216 0.016192 
216 2 12.2497 17.4709 1.75661 
219 2 13.9946 19.2012 1.7622 
574 2 12.2286 15.7226 3.50001 
614 1 12.2352 19.2188 3.49886 
617 1 13.9744 17.4754 3.51073 
178 2 15.7226 15.743 0.00747367 
183 2 17.4591 15.7341 1.74858 
220 1 15.7143 17.4779 1.74654 
222 2 19.2125 19.2172 0.00236646 
223 1 17.4659 19.213 1.74027 
224 1 19.2127 17.4736 1.75273 
578 2 15.7127 15.7184 3.49264 
582 2 19.2249 15.7339 3.5101 
618 1 15.7389 19.2129 3.50731 
621 2 17.4632 17.4734 3.49018 
622 2 19.2122 19.2124 3.4873 
187 2 20.9702 15.7457 1.76263 
225 2 20.9664 17.478 0.0120745 
226 2 22.7383 19.2209 0.00565098 
227 1 20.9718 19.2109 1.75105 
228 1 22.7245 17.4708 1.74574 
586 1 22.7083 15.7396 3.50566 
625 2 20.9792 17.4803 3.50504 
626 2 22.7355 19.2101 3.50039 
191 2 24.465 15.743 1.74587 
230 1 26.2109 19.2187 0.00517555 
231 1 24.4781 19.2072 1.75808 
232 1 26.2252 17.4658 1.75388 
590 1 26.2284 15.7145 3.51387 
629 1 24.4804 17.4635 3.49265 
630 1 26.2198 19.2236 3.50422 
195 2 27.9552 15.7316 1.74284 
235 1 27.9592 19.2126 1.74412 
236 2 29.6973 17.4709 1.75577 
594 2 29.7068 15.7196 3.5092 
633 2 27.9538 17.4768 3.49812 
634 2 29.7001 19.2229 3.50474 
199 2 31.4611 15.7206 1.74321 
239 2 31.4427 19.2257 1.7498 
240 2 33.2044 17.4726 1.74283 
598 2 33.2073 15.7293 3.49981 
637 2 31.4587 17.4741 3.50446 
638 1 33.2056 19.2096 3.48984 
242 2 1.72292 22.7243 0.00220673 
244 1 1.73101 20.9707 1.73681 
247 2 3.49535 22.7024 1.75355 
642 2 1.73013 22.725 3.48767 
645 2 3.47529 20.9759 3.49185 
248 1 5.24267 20.9619 1.73218 
251 1 6.98899 22.711 1.74031 
646 2 5.25355 22.7032 3.4923 
649 2 6.97997 20.967 3.49929 
250 2 8.73739 22.7161 0.0176248 
252 2 8.72008 20.9778 1.76029 
255 2 10.4656 22.7218 1.75267 
650 1 8.72169 22.7244 3.49277 
653 2 10.4723 20.9588 3.49863 
254 2 12.235 22.7207 0.011955 
256 2 12.233 20.9679 1.75684 
257 2 13.9922 20.9589 0.0118293 
259 2 13.9806 22.7224 1.77265 
654 2 12.2202 22.716 3.49943 
657 2 13.99 20.9538 3.50321 
258 2 15.7336 22.7116 0.0025842 
260 2 15.7432 20.9473 1.74513 
263 2 17.4798 22.7158 1.75609 
264 2 19.2179 20.9458 1.74727 
658 2 15.738 22.6998 3.51504 
661 1 17.4756 20.9547 3.50439 
662 2 19.2299 22.7137 3.49729 
265 2 20.9718 20.9775 0.0142227 
266 1 22.7077 22.7082 0.0129812 
267 2 20.9804 22.7133 1.75499 
268 2 22.7324 20.9559 1.75632 
665 1 20.9796 20.9432 3.49548 
666 1 22.7095 22.724 3.50641 
269 1 24.4794 20.9739 0.0043939 
270 1 26.2214 22.7242 0.0154874 
271 1 24.4587 22.7243 1.76437 
272 1 26.2171 20.9763 1.764 
669 2 24.4584 20.9724 3.48732 
670 2 26.2221 22.7235 3.4925 
273 2 27.9413 20.9605 0.00424392 
274 2 29.7134 22.7149 0.0044693 
275 2 27.9695 22.7142 1.76046 
276 2 29.7075 20.9697 1.74115 
673 2 27.966 20.9593 3.50198 
674 1 29.7155 22.7073 3.49521 
243 2 34.922 22.7168 1.73729 
279 1 31.4601 22.7096 1.74591 
280 1 33.1857 20.9628 1.74052 
641 1 34.937 20.9672 3.49037 
677 2 31.4622 20.9617 3.49719 
678 2 33.1862 22.7091 3.48416 
284 1 1.74841 24.4687 1.7499 
285 2 3.48448 24.4657 0.00114616 
287 2 3.50155 26.2018 1.75477 
682 1 1.73473 26.1901 3.49318 
685 1 3.50847 24.4531 3.49445 
286 1 5.24554 26.187 0.00785083 
288 2 5.24861 24.4506 1.74501 
289 2 6.98816 24.4706 0.0132541 
291 1 6.9816 26.2257 1.74951 
686 2 5.24149 26.2159 3.49395 
689 1 6.99133 24.4695 3.48656 
290 2 8.71806 26.235 0.0134628 
292 1 8.72973 24.472 1.7486 
295 2 10.474 26.2283 1.74723 
690 2 8.73464 26.2244 3.482 
693 2 10.4693 24.4692 3.49394 
294 2 12.2454 26.2213 0.00744758 
296 2 12.2165 24.4813 1.75459 
297 2 13.9929 24.4758 0.0104161 
299 2 13.9865 26.2221 1.76452 
694 1 12.2309 26.2116 3.50061 
697 2 13.9831 24.4727 3.52214 
298 1 15.7353 26.2038 0.00382181 
300 2 15.743 24.465 1.75141 
303 1 17.4687 26.2144 1.73648 
304 2 19.2151 24.4816 1.74085 
698 2 15.7154 26.215 3.4998 
701 1 17.4634 24.471 3.51334 
702 2 19.2101 26.2105 3.50605 
306 1 22.7084 26.2296 0.00665845 
307 2 20.9594 26.2226 1.75274 
308 2 22.7137 24.4653 1.75368 
705 1 20.9734 24.4803 3.49292 
706 2 22.7335 26.2013 3.49607 
309 2 24.4445 24.4542 0.0124474 
310 2 26.2026 26.2018 0.00461264 
311 2 24.4773 26.2056 1.74988 
312 2 26.2212 24.4611 1.76431 
709 1 24.4888 24.4755 3.50186 
710 1 26.2177 26.2268 3.50268 
313 2 27.9657 24.4704 0.00312743 
314 2 29.7163 26.2258 0.00119646 
315 1 27.9643 26.2169 1.74711 
316 2 29.7195 24.4644 1.75982 
713 2 27.9686 24.4748 3.49773 
714 1 29.7194 26.2235 3.49927 
283 2 34.9334 26.1905 1.73118 
319 2 31.4465 26.2102 1.7386 
320 1 33.1749 24.4606 1.72983 
681 1 34.9139 24.4679 3.48271 
717 2 31.4571 24.4645 3.49982 
718 2 33.1897 26.218 3.48283 
324 2 1.7385 27.9339 1.74286 
327 2 3.49414 29.6958 1.75553 
722 2 1.75197 29.6931 3.49756 
725 2 3.48257 27.9558 3.49242 
326 1 5.22743 29.7053 0.00399251 
328 2 5.24064 27.9598 1.7395 
331 2 6.98045 29.6977 1.74275 
726 1 5.22694 29.7082 3.50807 
729 2 6.98424 27.9631 3.49022 
332 1 8.72075 27.9752 1.74232 
333 2 10.4949 27.9809 0.0130149 
335 2 10.4792 29.7124 1.75188 
730 1 8.72929 29.7106 3.49769 
733 2 10.5001 27.9755 3.47735 
334 2 12.2351 29.7212 0.0100374 
336 1 12.2513 27.9668 1.74899 
339 2 13.9781 29.7103 1.74285 
734 1 12.2463 29.7174 3.49742 
737 1 13.975 27.9669 3.50967 
338 1 15.7216 29.7093 0.0130595 
340 2 15.722 27.9574 1.73392 
342 1 19.2312 29.7044 0.00747932 
343 2 17.4865 29.6936 1.75794 
344 1 19.2167 27.9566 1.75113 
738 2 15.7243 29.7102 3.4942 
741 2 17.4647 27.9513 3.49154 
742 2 19.2204 29.7063 3.50005 
345 2 20.9603 27.9727 0.00691852 
346 2 22.6969 29.715 0.00528564 
347 1 20.9667 29.7193 1.74934 
348 2 22.7036 27.9667 1.76262 
745 2 20.9627 27.9574 3.50969 
746 2 22.7071 29.7173 3.50261 
349 2 24.4595 27.957 0.00508564 
351 2 24.4615 29.7134 1.75132 
352 2 26.2236 27.9665 1.74854 
749 2 24.4688 27.9496 3.50376 
750 2 26.2192 29.7171 3.49141 
353 2 27.9657 27.9662 0.00310259 
355 1 27.9605 29.723 1.74887 
356 2 29.7079 27.9678 1.74835 
753 2 27.9661 27.9622 3.48879 
754 2 29.7164 29.7193 3.48277 
323 2 34.9407 29.706 1.74675 
357 1 31.4514 27.9669 0.0118942 
359 2 31.4643 29.714 1.74051 
360 1 33.1968 27.9578 1.73414 
721 2 34.9377 27.9415 3.48844 
757 2 31.4674 27.9704 3.49117 
758 1 33.21 29.7034 3.50453 
363 1 0.00716923 33.1803 1.73999 
364 2 1.73904 31.4476 1.74653 
365 2 3.49673 31.45 0.0123343 
367 2 3.47936 33.2113 1.7445 
405 2 3.49139 34.941 3.49953 
762 2 1.73358 33.1975 3.49275 
765 1 3.48742 31.454 3.48607 
366 1 5.24171 33.2125 0.0109062 
368 2 5.2371 31.4542 1.75043 
369 2 6.9848 31.4505 0.00383391 
371 2 7.00104 33.219 1.74708 
766 2 5.23657 33.1974 3.48069 
769 2 6.97493 31.4429 3.51404 
13 2 10.4831 34.9371 0.00739445 
370 2 8.73978 33.1842 0.0127927 
372 2 8.73083 31.4428 1.76067 
373 1 10.4722 31.4536 0.0071252 
375 1 10.4696 33.1835 1.76138 
770 2 8.73382 33.188 3.49619 
773 2 10.4796 31.4436 3.4995 
16 2 12.2227 34.935 1.7526 
17 2 13.9732 34.9274 0.000450926 
374 1 12.2304 33.1972 0.0112335 
376 2 12.2287 31.457 1.7535 
379 1 13.986 33.1853 1.76168 
774 2 12.2331 33.1938 3.49724 
777 2 13.9871 31.4485 3.50251 
20 2 15.7264 34.9429 1.76195 
380 2 15.7288 31.4532 1.76054 
381 2 17.476 31.4341 0.0118679 
383 2 17.464 33.2007 1.75191 
384 2 19.2171 31.4572 1.73749 
778 2 15.7219 33.2092 3.5165 
781 1 17.4744 31.4609 3.50705 
782 2 19.2092 33.2156 3.49724 
25 2 20.9587 34.9377 0.00068047 
385 1 20.9668 31.4627 0.000745636 
387 2 20.9589 33.2128 1.74281 
388 2 22.7087 31.4734 1.745 
785 2 20.9543 31.4712 3.48673 
786 2 22.7251 33.2269 3.48891 
391 2 24.4694 33.223 1.74599 
392 2 26.2165 31.4737 1.73797 
789 2 24.4683 31.4736 3.49473 
790 1 26.2171 33.1976 3.50489 
395 2 27.9744 33.2138 1.73818 
396 2 29.7188 31.4628 1.73651 
793 2 27.9769 31.4709 3.49161 
794 1 29.724 33.2004 3.48908 
1 1 34.9394 34.9349 0.00632247 
37 2 31.4634 34.9415 0.000941123 
40 2 33.1949 34.9293 1.73774 
398 2 33.1997 33.1733 0.00160418 
399 1 31.4613 33.1782 1.73672 
400 1 33.2111 31.4475 1.75381 
761 2 34.9438 31.4536 3.5021 
797 1 31.4633 31.4484 3.48744 
798 1 33.2091 33.2062 3.48875 
404 2 1.74036 0.0146937 5.25631 
407 2 3.50251 1.7483 5.226 
444 1 1.74384 3.49194 5.22391 
802 2 1.74749 1.74738 6.98981 
805 1 3.49863 0.0110599 6.98511 
845 2 3.48108 3.49335 6.99129 
408 1 5.2392 0.00169851 5.22414 
411 1 6.98251 1.74049 5.25322 
448 2 5.2352 3.48697 5.24798 
806 1 5.23296 1.74482 6.981 
809 1 6.98337 0.00478737 6.99253 
849 2 6.98291 3.48585 6.99845 
415 2 10.4872 1.75261 5.25275 
452 2 8.73232 3.48739 5.23766 
810 1 8.73397 1.75313 6.99075 
853 2 10.4916 3.49356 6.99574 
419 1 13.9606 1.74161 5.26015 
456 2 12.2408 3.48559 5.2524 
814 1 12.2234 1.74485 7.0061 
857 1 13.9873 3.46914 7.0009 
420 1 15.7148 0.0166256 5.26261 
423 1 17.4756 1.75394 5.24939 
424 2 19.2108 0.00783496 5.23934 
460 2 15.7117 3.47408 5.25122 
464 2 19.2347 3.49289 5.24251 
818 2 15.7287 1.75086 6.99185 
821 2 17.4764 0.00918754 7.00306 
822 2 19.2215 1.74992 6.99362 
861 2 17.4651 3.49827 7.00609 
427 1 20.9756 1.73582 5.25232 
428 2 22.7282 0.0177057 5.23634 
468 1 22.6985 3.49284 5.22927 
826 1 22.7246 1.74419 6.99433 
865 2 20.9803 3.49034 6.98049 
431 2 24.4611 1.75481 5.22857 
432 1 26.2223 0.0094314 5.23628 
472 2 26.2032 3.49935 5.23604 
829 2 24.4655 0.00125508 6.98653 
830 2 26.2138 1.74858 6.98136 
869 2 24.4406 3.50254 6.99118 
435 1 27.9593 1.74993 5.23711 
436 2 29.7196 0.00438972 5.22686 
476 2 29.7099 3.49153 5.23316 
833 2 27.969 0.0129671 6.9784 
834 1 29.7182 1.75714 6.98153 
873 2 27.9681 3.5004 6.97817 
403 2 34.9332 1.75176 5.23798 
439 1 31.4607 1.75524 5.24538 
440 1 33.1878 0.00894804 5.22166 
480 2 33.2042 3.48889 5.24474 
801 1 34.9271 0.00901619 6.98513 
837 2 31.461 0.00308032 6.96874 
838 2 33.1914 1.74906 7.00053 
841 1 34.9415 3.49339 6.98444 
877 2 31.4576 3.51627 6.98756 
443 2 0.00144829 5.23429 5.24486 
447 2 3.49332 5.23396 5.22884 
484 2 1.75879 6.97879 5.24235 
842 2 1.74371 5.23748 6.98013 
881 2 0.00380248 6.97805 6.98677 
885 1 3.49119 6.97248 6.98357 
451 2 6.99421 5.22969 5.25344 
488 1 5.24425 6.97765 5.2423 
846 2 5.2389 5.24572 7.00309 
889 1 6.99142 6.96674 6.9887 
455 1 10.4814 5.2293 5.2415 
492 2 8.73043 6.98613 5.24607 
850 2 8.74088 5.22593 7.00784 
893 1 10.4735 6.97035 6.99059 
459 1 13.986 5.23451 5.25884 
496 2 12.2402 6.97775 5.25821 
854 2 12.237 5.23004 6.99412 
897 1 13.9787 6.98583 6.99721 
463 2 17.4783 5.22528 5.26108 
500 2 15.712 6.98941 5.25249 
504 2 19.215 6.98228 5.24208 
858 1 15.7119 5.23049 6.99945 
862 1 19.2342 5.2246 7.00255 
901 1 17.4879 6.98261 6.98871 
467 1 20.9576 5.25185 5.23984 
508 2 22.7216 6.97504 5.24161 
866 2 22.6945 5.23912 6.98656 
905 2 20.953 6.99047 6.98817 
471 2 24.4551 5.25189 5.23421 
512 1 26.2126 6.99991 5.22687 
870 2 26.2196 5.26332 6.97775 
909 2 24.4689 7.00332 6.98587 
475 1 27.9566 5.23514 5.23343 
516 2 29.6911 6.98351 5.23499 
874 1 29.7073 5.25789 6.97868 
913 2 27.9614 6.99829 6.9771 
479 2 31.4465 5.23967 5.24715 
520 2 33.1965 7.00389 5.23881 
878 2 33.1926 5.25018 6.99597 
917 1 31.452 6.99995 6.97745 
483 2 0.00914287 8.73904 5.23877 
487 2 3.50951 8.72392 5.25978 
524 2 1.73843 10.4841 5.24479 
882 1 1.73887 8.72256 6.9912 
925 1 3.49125 10.4766 6.98349 
491 1 6.9825 8.7407 5.2531 
528 2 5.25493 10.4689 5.25813 
886 1 5.24983 8.71335 6.99776 
929 1 6.97872 10.4888 7.00365 
495 2 10.4786 8.73056 5.25601 
532 1 8.72465 10.4835 5.24692 
890 2 8.72262 8.74354 6.98611 
933 1 10.4849 10.4814 7.00356 
499 1 13.9729 8.7412 5.25429 
536 2 12.2227 10.4836 5.24429 
894 2 12.2373 8.73204 6.99856 
937 1 13.9791 10.4944 6.99246 
503 2 17.469 8.72853 5.24893 
540 1 15.7316 10.4702 5.2476 
544 2 19.2106 10.4706 5.23057 
898 1 15.7089 8.73387 6.98418 
902 1 19.2334 8.74583 6.98636 
941 2 17.4658 10.4621 6.98529 
507 2 20.9648 8.72797 5.22946 
548 2 22.7107 10.4846 5.21921 
906 2 22.7128 8.7295 6.98949 
945 2 20.9664 10.4788 6.96664 
511 1 24.4445 8.73342 5.22425 
552 2 26.2139 10.4777 5.22911 
910 1 26.215 8.7384 6.96178 
949 2 24.4603 10.4683 6.9871 
515 1 27.9728 8.73518 5.23483 
556 2 29.7104 10.4935 5.22332 
914 2 29.7022 8.7278 6.99425 
953 2 27.9756 10.4726 6.96443 
519 2 31.4374 8.74022 5.23014 
560 1 33.2035 10.4649 5.24114 
918 2 33.2011 8.74389 6.99234 
921 2 34.9418 10.4831 6.98608 
957 1 31.4444 10.475 6.98195 
527 2 3.48826 12.2239 5.24064 
564 1 1.74756 13.9627 5.23678 
922 2 1.745 12.2267 6.97772 
965 2 3.48378 13.9703 6.99652 
961 1 0.000183316 13.9737 6.97952 
531 2 6.9826 12.2202 5.25056 
568 2 5.23049 13.9838 5.25337 
926 1 5.23578 12.2366 6.99863 
969 1 6.98077 13.9888 6.99203 
535 2 10.4751 12.2139 5.23121 
572 2 8.73392 13.9675 5.2371 
930 1 8.74279 12.2261 6.99231 
973 2 10.4666 13.9667 6.97436 
539 2 13.9775 12.225 5.25202 
576 1 12.2133 13.9798 5.24888 
934 2 12.2142 12.2241 6.9925 
977 2 13.9713 13.9611 6.97924 
543 2 17.478 12.2411 5.24219 
580 1 15.7285 13.9772 5.25706 
584 2 19.2235 13.9942 5.22953 
938 2 15.7269 12.2126 6.98521 
942 2 19.2235 12.2256 6.98338 
981 2 17.4772 13.9877 6.98132 
547 1 20.9559 12.2192 5.22434 
588 1 22.7015 13.9677 5.2414 
946 2 22.7121 12.2207 6.96673 
985 2 20.9629 13.9902 6.96617 
551 2 24.4553 12.2195 5.24039 
592 1 26.2039 13.96 5.23486 
950 2 26.2111 12.2163 6.97939 
989 2 24.4673 13.971 6.98815 
555 1 27.964 12.239 5.22981 
596 1 29.7242 13.9591 5.2385 
954 2 29.7187 12.2215 6.97577 
993 2 27.958 13.9562 6.97342 
523 1 34.9435 12.2166 5.23875 
559 2 31.4647 12.2145 5.23526 
600 2 33.2156 13.9698 5.23247 
958 1 33.198 12.22 6.97898 
997 2 31.4735 13.9606 6.98727 
563 1 0.00681014 15.7155 5.23583 
567 2 3.47893 15.7251 5.22906 
604 2 1.73537 17.473 5.2342 
607 2 3.48795 19.2377 5.23112 
962 2 1.73548 15.7116 6.98468 
1001 1 0.00251664 17.4733 6.99827 
1002 2 1.73081 19.2204 6.99482 
1005 2 3.47865 17.4663 6.96684 
571 2 6.9809 15.7334 5.23452 
608 1 5.23499 17.459 5.23011 
611 1 6.96914 19.2164 5.2323 
966 1 5.22211 15.7321 6.98894 
1006 2 5.23213 19.2079 6.9639 
1009 2 6.97326 17.4577 6.98126 
575 2 10.4745 15.7321 5.24124 
612 2 8.71779 17.4916 5.23591 
615 1 10.4831 19.2087 5.2282 
970 2 8.71448 15.7157 6.98486 
1010 2 8.72401 19.22 6.98698 
1013 2 10.4686 17.4775 6.98866 
579 2 13.983 15.7097 5.24412 
616 2 12.2294 17.4688 5.2406 
619 2 13.9707 19.2277 5.23779 
974 2 12.2262 15.7228 6.98868 
1014 2 12.2227 19.2206 6.98002 
1017 2 13.9898 17.468 6.97955 
583 1 17.4622 15.7284 5.23351 
620 2 15.7345 17.4638 5.23585 
623 2 17.4751 19.2145 5.24346 
624 1 19.2094 17.4754 5.25222 
978 2 15.7376 15.7215 6.99785 
982 1 19.2182 15.7214 6.97427 
1018 2 15.7251 19.2164 6.99725 
1021 1 17.468 17.4651 6.99151 
1022 2 19.2314 19.1968 7.00099 
587 1 20.9763 15.7429 5.23535 
627 2 20.9807 19.204 5.2433 
628 1 22.7305 17.4805 5.25552 
986 2 22.7033 15.7375 6.97297 
1025 1 20.9667 17.4663 6.99374 
1026 1 22.7219 19.2185 6.99305 
591 2 24.4534 15.7184 5.2396 
631 2 24.472 19.2148 5.23627 
632 2 26.2158 17.4556 5.2309 
990 2 26.2144 15.7062 6.98489 
1029 1 24.4816 17.4664 6.98463 
1030 2 26.209 19.2167 6.97593 
595 2 27.9751 15.7047 5.24367 
635 1 27.9575 19.2098 5.24974 
636 1 29.7106 17.4774 5.24656 
994 2 29.7236 15.7139 6.98189 
1033 2 27.9554 17.4663 6.97622 
1034 2 29.7162 19.2254 6.99075 
599 2 31.4627 15.725 5.25388 
603 1 34.9421 19.2131 5.22955 
639 2 31.4634 19.2106 5.24995 
640 1 33.2101 17.4722 5.25713 
998 1 33.2129 15.7171 6.97955 
1037 2 31.4688 17.4711 6.98866 
1038 2 33.211 19.2174 6.99505 
644 1 1.7284 20.9764 5.25708 
647 1 3.47889 22.7234 5.23065 
1042 2 1.72329 22.7209 6.98545 
1045 2 3.49014 20.9817 6.98372 
648 1 5.23669 20.9832 5.24451 
651 1 6.99165 22.7138 5.23162 
1046 2 5.24438 22.7342 6.97848 
1049 2 6.98098 20.9729 6.98831 
652 1 8.73305 20.9613 5.2325 
655 2 10.4687 22.7048 5.24026 
1050 2 8.72039 22.7115 6.97924 
1053 2 10.4748 20.9552 6.98839 
656 2 12.2143 20.9659 5.24751 
659 1 13.9675 22.7036 5.24631 
1054 2 12.2292 22.7177 7.00027 
1057 2 13.9745 20.9754 6.99245 
660 2 15.7341 20.9679 5.24945 
663 1 17.4935 22.6971 5.24964 
664 2 19.2365 20.9506 5.23844 
1058 2 15.7232 22.7161 6.9899 
1061 2 17.4877 20.9551 6.99379 
1062 2 19.233 22.7237 6.99059 
667 2 20.9672 22.7281 5.23119 
668 1 22.7167 20.9729 5.23547 
1065 2 20.9772 20.9614 6.98124 
1066 2 22.716 22.7125 6.97996 
671 2 24.4797 22.7305 5.22505 
672 2 26.2177 20.9766 5.23927 
1069 2 24.4627 20.9585 6.98015 
1070 2 26.2341 22.7155 6.98472 
675 1 27.9725 22.7141 5.24006 
676 2 29.7068 20.9615 5.25351 
1073 2 27.9772 20.975 6.98496 
1074 1 29.7124 22.7171 6.99089 
643 1 34.9304 22.7223 5.22072 
679 2 31.4481 22.7162 5.24772 
680 2 33.2107 20.9616 5.22932 
1041 2 34.9309 20.9635 6.97815 
1077 1 31.4579 20.9617 6.98534 
1078 1 33.202 22.7102 6.98396 
684 2 1.7267 24.4504 5.21224 
687 2 3.5012 26.2002 5.22897 
1082 2 1.7517 26.1989 6.97639 
1085 2 3.49023 24.4652 6.96646 
688 2 5.25489 24.4569 5.22919 
691 1 6.99789 26.2341 5.22984 
1086 1 5.24727 26.2007 6.97971 
1089 2 6.9919 24.4777 6.97984 
692 2 8.72342 24.4605 5.22581 
695 2 10.4796 26.2183 5.24137 
1090 2 8.71744 26.2275 6.99022 
1093 2 10.4804 24.4673 6.99044 
696 2 12.2339 24.4627 5.24667 
699 1 13.9582 26.224 5.25178 
1094 2 12.2224 26.213 6.99133 
1097 1 13.9707 24.4634 6.99656 
700 2 15.7189 24.4556 5.25977 
703 1 17.4635 26.2137 5.24041 
704 2 19.2241 24.4789 5.24037 
1098 2 15.7306 26.2074 6.99174 
1101 2 17.4777 24.4676 6.97531 
1102 1 19.2191 26.204 6.98071 
707 1 20.9845 26.2042 5.24342 
708 2 22.7271 24.4703 5.24445 
1105 1 20.9754 24.4698 7.00056 
1106 2 22.7015 26.2292 6.99618 
711 1 24.4687 26.219 5.24469 
712 1 26.2372 24.4677 5.23797 
1109 2 24.4598 24.4702 6.97115 
1110 2 26.2213 26.2152 6.9674 
715 2 27.9649 26.2147 5.23196 
716 2 29.718 24.4632 5.234 
1113 2 27.9804 24.4561 6.99106 
1114 2 29.7146 26.2043 6.97531 
683 2 34.9238 26.1897 5.23579 
719 1 31.469 26.222 5.23957 
720 1 33.1786 24.4491 5.24179 
1081 2 34.9197 24.4475 6.98637 
1117 1 31.4509 24.4652 6.98545 
1118 2 33.1951 26.1973 6.99147 
723 2 0.00850696 29.7026 5.24555 
724 2 1.73444 27.9434 5.23715 
727 1 3.4841 29.7065 5.24358 
1122 2 1.74126 29.7062 6.9892 
1125 2 3.48951 27.9469 6.98192 
728 2 5.2333 27.9573 5.24323 
731 2 6.98656 29.6997 5.2491 
1126 2 5.24064 29.6979 6.97769 
1129 2 6.98645 27.955 7.00352 
732 2 8.74067 27.9815 5.23413 
735 2 10.473 29.7202 5.24119 
1130 1 8.72983 29.7046 7.01161 
1133 2 10.472 27.9668 7.0071 
736 2 12.2277 27.975 5.23531 
739 2 13.987 29.7155 5.24619 
1134 2 12.2132 29.7165 6.97892 
1137 2 13.9746 27.9551 6.98797 
740 2 15.729 27.9657 5.25281 
743 1 17.466 29.711 5.23333 
744 1 19.2205 27.9493 5.24316 
1138 2 15.7476 29.7068 6.99368 
1141 2 17.4834 27.9532 6.99664 
1142 1 19.198 29.7011 6.97572 
747 1 20.9657 29.7253 5.24174 
748 1 22.706 27.9633 5.23907 
1145 1 20.9615 27.9746 6.98286 
1146 1 22.7261 29.7089 6.97469 
751 2 24.4575 29.6973 5.23443 
752 1 26.2211 27.97 5.23664 
1149 2 24.4571 27.9648 6.97311 
1150 2 26.2056 29.712 6.99213 
755 2 27.9685 29.7106 5.24288 
756 2 29.7211 27.9693 5.24889 
1153 2 27.9678 27.9603 6.98878 
1154 2 29.7176 29.7231 7.00534 
759 2 31.46 29.7074 5.2455 
760 1 33.2101 27.9617 5.24426 
1121 2 34.9426 27.9563 6.99616 
1157 2 31.4699 27.9521 7.0016 
1158 2 33.2071 29.6992 6.98831 
764 2 1.74578 31.4522 5.24728 
767 2 3.48963 33.1985 5.23569 
1162 2 1.73265 33.2118 6.99473 
1165 2 3.49448 31.461 6.97699 
768 2 5.23564 31.457 5.24673 
771 2 6.98566 33.2057 5.24794 
1166 2 5.2434 33.2136 6.99398 
1169 1 6.98291 31.4467 6.98904 
412 2 8.72564 34.9394 5.258 
772 1 8.72907 31.4486 5.25088 
775 2 10.4928 33.1906 5.24776 
813 1 10.4909 34.9387 6.98307 
1170 2 8.7356 33.2005 6.99832 
1173 2 10.4645 31.4616 6.99577 
416 2 12.2375 34.9349 5.25352 
776 1 12.2249 31.457 5.24333 
779 1 13.9746 33.1923 5.24609 
817 2 13.9591 34.9419 6.99551 
1174 1 12.2327 33.1866 6.99475 
1177 2 13.9753 31.459 6.9838 
780 1 15.7268 31.4538 5.24622 
783 2 17.4479 33.2017 5.26514 
784 2 19.2003 31.4474 5.2511 
1178 2 15.7155 33.2019 7.0037 
1181 2 17.479 31.4509 6.99854 
1182 1 19.2119 33.2018 6.98194 
787 2 20.9617 33.2028 5.23818 
788 2 22.7155 31.4512 5.24166 
825 2 20.9738 34.9407 6.97902 
1185 2 20.9526 31.4401 6.98744 
1186 2 22.7039 33.1991 6.99368 
791 2 24.4747 33.2102 5.23836 
792 2 26.2278 31.4573 5.24258 
1189 2 24.4635 31.4596 6.9882 
1190 2 26.2319 33.2179 6.98063 
795 2 27.9825 33.2154 5.24123 
796 1 29.7137 31.4581 5.23276 
1193 2 27.9781 31.4653 6.9936 
1194 1 29.7145 33.1959 6.9919 
763 2 34.9293 33.2074 5.24157 
799 1 31.4597 33.1918 5.23408 
800 2 33.1958 31.4511 5.2284 
1161 1 34.9326 31.4473 6.99406 
1197 2 31.4556 31.4557 6.9814 
1198 2 33.1948 33.2103 6.97418 
803 1 0.00461618 1.74459 8.72325 
804 1 1.74023 0.000669585 8.73122 
807 2 3.49923 1.74937 8.73455 
844 2 1.73814 3.49007 8.73897 
1201 2 0.00785777 0.0211597 10.4629 
1202 1 1.74125 1.76103 10.4681 
1205 2 3.48322 0.0148305 10.468 
1241 1 0.00114715 3.49567 10.4768 
1245 1 3.50371 3.48285 10.494 
808 1 5.23551 0.00615889 8.72771 
811 1 6.97119 1.74041 8.72644 
848 1 5.24591 3.4986 8.73606 
1206 1 5.24061 1.74196 10.482 
1209 2 6.9828 0.0112208 10.4768 
1249 1 6.97776 3.47665 10.4818 
812 1 8.74507 0.00590755 8.72574 
815 2 10.4729 1.74367 8.73391 
852 2 8.72843 3.48818 8.75076 
1210 2 8.72056 1.7402 10.4784 
1253 1 10.4853 3.47005 10.4773 
819 2 13.9825 1.73401 8.72944 
856 1 12.2299 3.4882 8.72837 
1214 2 12.2308 1.742 10.4774 
1257 2 13.969 3.49991 10.4759 
823 1 17.4802 1.75675 8.75853 
860 2 15.7151 3.48999 8.75897 
864 2 19.2381 3.48473 8.7541 
1218 2 15.7361 1.73118 10.4908 
1222 1 19.2302 1.74285 10.5005 
1261 2 17.4754 3.48573 10.5005 
827 2 20.9664 1.73616 8.73003 
868 1 22.7005 3.49653 8.73184 
1226 2 22.7157 1.75787 10.4702 
1265 2 20.9842 3.49121 10.4976 
831 2 24.4521 1.74316 8.73344 
832 1 26.2209 0.017126 8.73747 
872 2 26.1892 3.5032 8.7262 
1229 2 24.4633 0.0126645 10.4836 
1230 1 26.1941 1.7652 10.4717 
1269 1 24.4492 3.50034 10.4634 
835 2 27.9614 1.75203 8.73143 
836 2 29.7091 0.00501891 8.72319 
876 2 29.7173 3.51136 8.72815 
1233 2 27.9496 0.0282287 10.4798 
1234 1 29.6992 1.75729 10.4778 
1273 2 27.9491 3.50341 10.4766 
839 2 31.4556 1.76891 8.73573 
840 1 33.1864 0.00992785 8.73743 
880 1 33.1944 3.51439 8.73687 
1237 2 31.4538 0.034725 10.4805 
1238 1 33.2066 1.76774 10.4634 
1277 1 31.4442 3.48674 10.481 
843 1 0.00927995 5.24665 8.73204 
847 2 3.49887 5.23358 8.74494 
884 2 1.76015 6.97877 8.73244 
1242 2 1.74894 5.22176 10.4986 
1285 2 3.50534 6.97657 10.4771 
851 1 6.97514 5.24399 8.75578 
888 1 5.24223 6.98225 8.73804 
1246 1 5.24217 5.24424 10.4871 
1289 1 6.98656 6.99308 10.5012 
855 1 10.4915 5.23657 8.74485 
892 2 8.7294 6.96624 8.74299 
1250 1 8.74027 5.22922 10.4898 