ITEM: TIMESTEP
1000
ITEM: NUMBER OF ATOMS
4001
ITEM: BOX BOUNDS pp pp pp
0.0000000000000000e+00 3.4945000000000000e+01
0.0000000000000000e+00 3.4945000000000000e+01
0.0000000000000000e+00 3.4945000000000000e+01
ITEM: ATOMS id type x y z 
2 1 1.72679 1.75208 0.00649527 
4 2 1.72887 0.00874998 1.73978 
7 1 3.49098 1.73692 1.74159 
41 1 0.00904432 3.50769 0.0024434 
44 2 1.75015 3.49113 1.74437 
45 2 3.48581 3.49226 0.0129582 
402 2 1.75187 1.75208 3.47699 
445 2 3.50239 3.49273 3.47993 
6 2 5.233 1.74382 0.00526168 
8 2 5.2511 0.0104466 1.75447 
11 1 6.9955 1.74875 1.74308 
48 2 5.23954 3.48361 1.74367 
406 1 5.24151 1.7469 3.49214 
409 2 6.9942 0.0211389 3.50174 
449 1 6.9717 3.48448 3.49785 
10 2 8.75142 1.75132 0.00624226 
12 1 8.74519 0.00878619 1.74593 
15 2 10.4887 1.7401 1.74444 
52 2 8.73912 3.48843 1.75788 
53 1 10.4876 3.49404 0.00627336 
410 2 8.72681 1.75201 3.50412 
413 2 10.4739 0.0072018 3.50392 
453 1 10.484 3.47989 3.49828 
19 1 13.9729 1.73914 1.7475 
56 2 12.2315 3.47679 1.7566 
57 2 13.9638 3.47945 0.0156594 
414 1 12.2278 1.74587 3.50054 
417 2 13.977 0.0120502 3.50473 
457 1 13.9881 3.47161 3.49764 
18 2 15.7164 1.75015 0.00994992 
23 2 17.4708 1.74163 1.7612 
24 1 19.207 0.00641126 1.75703 
60 2 15.7128 3.49137 1.75364 
64 2 19.212 3.47029 1.74323 
418 1 15.7192 1.73294 3.50872 
421 2 17.4726 0.00402881 3.51466 
422 1 19.2157 1.74352 3.50454 
461 2 17.465 3.48473 3.50448 
27 1 20.9546 1.73289 1.72898 
28 1 22.7066 0.0029262 1.75065 
68 2 22.7176 3.46448 1.73888 
425 1 20.961 0.015748 3.4978 
426 1 22.7103 1.74525 3.49365 
465 2 20.9577 3.47221 3.4984 
29 2 24.4658 0.0110028 0.0020596 
31 1 24.4701 1.74024 1.74236 
32 1 26.2208 0.00285395 1.75658 
72 1 26.2093 3.50391 1.74667 
429 1 24.4766 0.0168498 3.48879 
430 1 26.2194 1.76485 3.49308 
469 2 24.4546 3.48286 3.48629 
34 2 29.6942 1.75216 0.00145388 
35 1 27.9577 1.74458 1.74302 
73 1 27.9587 3.47874 0.00067988 
76 1 29.709 3.49233 1.75611 
433 1 27.9652 0.00669081 3.49159 
434 1 29.7222 1.75652 3.48463 
473 2 27.9679 3.487 3.48308 
36 1 29.7197 0.000572627 1.74792 
3 1 34.9339 1.75419 1.74505 
39 1 31.4537 1.76075 1.71824 
80 2 33.1884 3.50206 1.72853 
401 2 34.9326 0.00246725 3.4849 
438 2 33.174 1.74228 3.4787 
441 2 34.9307 3.4954 3.4871 
477 1 31.4577 3.49793 3.49132 
437 1 31.4516 0.000274695 3.47993 
43 2 0.0111296 5.24408 1.7328 
47 1 3.50701 5.25452 1.7484 
84 2 1.75899 6.99269 1.74144 
442 2 1.75034 5.23914 3.48479 
481 2 0.00774827 6.9984 3.4888 
485 2 3.50532 6.98528 3.50252 
51 2 6.98224 5.22192 1.75249 
88 2 5.26076 6.97978 1.74831 
446 2 5.24503 5.2369 3.4875 
489 2 6.99169 6.9806 3.51777 
50 2 8.73138 5.23717 0.0111036 
55 2 10.4958 5.23553 1.76521 
92 1 8.73337 6.9723 1.76484 
450 2 8.73828 5.22417 3.49795 
493 2 10.4925 6.97919 3.50893 
54 2 12.2382 5.22353 0.00458001 
59 1 13.9761 5.23351 1.74403 
96 2 12.2431 6.99438 1.73631 
97 2 13.9923 6.97484 0.0110171 
454 2 12.249 5.21896 3.50624 
497 1 13.9798 6.99153 3.48601 
58 1 15.7101 5.23888 0.0076225 
63 2 17.4553 5.23523 1.7447 
100 1 15.7249 6.97552 1.76332 
104 2 19.1918 6.97953 1.73068 
458 2 15.7141 5.22834 3.50155 
462 1 19.2161 5.2359 3.48605 
501 2 17.4673 6.97809 3.49566 
67 2 20.9538 5.22226 1.7513 
108 2 22.7105 6.98514 1.73822 
466 2 22.6887 5.2267 3.49207 
505 2 20.9455 6.99223 3.48165 
71 2 24.4565 5.23126 1.74394 
112 2 26.2251 6.97262 1.74349 
470 2 26.2144 5.23313 3.50087 
509 2 24.4703 6.99125 3.478 
74 1 29.7084 5.23479 0.00510738 
75 2 27.9715 5.23843 1.74731 
116 1 29.6997 6.99639 1.75221 
474 2 29.7043 5.23547 3.49295 
513 1 27.9545 6.98667 3.49668 
79 2 31.4416 5.24574 1.74885 
120 2 33.1895 7.00085 1.73051 
478 2 33.197 5.25162 3.49042 
517 2 31.44 6.9893 3.49439 
83 2 0.00105757 8.73614 1.73616 
87 2 3.52034 8.72034 1.74414 
124 2 1.74464 10.4811 1.73881 
482 2 1.7706 8.74604 3.50073 
521 1 0.00928677 10.4667 3.49113 
525 2 3.50579 10.4852 3.50145 
91 2 6.98777 8.71821 1.75749 
128 2 5.24671 10.4792 1.74482 
129 2 6.99977 10.4823 0.0112338 
486 1 5.25185 8.71638 3.50526 
529 1 6.97402 10.4683 3.47977 
95 2 10.4889 8.73181 1.7346 
132 2 8.7539 10.4628 1.74794 
490 2 8.72142 8.73429 3.50245 
533 1 10.481 10.4597 3.49289 
99 1 13.984 8.73856 1.73427 
136 1 12.2213 10.4791 1.75037 
137 2 13.9571 10.4822 0.00440898 
494 2 12.2405 8.73247 3.49093 
537 2 13.964 10.4745 3.50762 
103 2 17.4497 8.72826 1.73744 
140 2 15.7058 10.4825 1.75445 
144 2 19.2271 10.4757 1.73653 
498 2 15.7209 8.73345 3.50473 
502 1 19.2053 8.73366 3.472 
541 2 17.4792 10.4918 3.48958 
107 2 20.955 8.7412 1.72896 
148 1 22.7021 10.4706 1.73945 
506 2 22.6984 8.73647 3.48296 
545 1 20.9598 10.4631 3.49869 
111 2 24.4663 8.72766 1.73068 
152 2 26.199 10.4767 1.73561 
510 2 26.2231 8.73594 3.50195 
549 2 24.4492 10.4719 3.47204 
114 1 29.7006 8.72921 0.00690966 
115 1 27.9474 8.73521 1.72496 
156 2 29.7145 10.4636 1.73266 
514 2 29.6876 8.73802 3.46616 
553 1 27.9512 10.488 3.4921 
119 1 31.4639 8.73827 1.73451 
160 1 33.2155 10.4791 1.74025 
518 2 33.2027 8.73899 3.48432 
557 2 31.4679 10.4709 3.48387 
123 2 0.00304251 12.2163 1.74469 
127 2 3.50101 12.2408 1.73582 
161 2 0.0047874 13.9593 0.0101196 
164 2 1.7391 13.9778 1.75125 
522 1 1.73402 12.2265 3.49622 
565 2 3.49214 13.9683 3.49662 
131 2 6.9907 12.2398 1.75924 
168 2 5.24645 13.9804 1.74791 
169 2 6.99715 13.9952 0.0138117 
526 1 5.24597 12.2302 3.50404 
569 1 6.97383 13.9812 3.49932 
135 1 10.4711 12.2202 1.75254 
172 2 8.74291 13.9817 1.76286 
530 2 8.7247 12.2259 3.50236 
573 1 10.4853 13.9823 3.5002 
139 2 13.9667 12.2303 1.75476 
176 2 12.2293 13.9647 1.75145 
177 2 13.9764 13.9898 0.0152418 
534 2 12.2128 12.2314 3.49575 
577 1 13.9769 13.9684 3.50688 
143 2 17.4663 12.243 1.74264 
180 1 15.725 13.9787 1.74472 
184 2 19.2003 13.9948 1.74467 
538 2 15.7263 12.2388 3.5062 
542 2 19.2327 12.2275 3.48962 
581 1 17.4708 13.9791 3.50205 
146 2 22.7171 12.2328 0.0170194 
147 2 20.9685 12.2161 1.76313 
185 2 20.9511 13.9684 0.0166953 
188 2 22.7072 13.9903 1.76523 
546 1 22.7055 12.2174 3.49594 
585 1 20.971 13.9893 3.49707 
150 1 26.2029 12.2138 0.00680511 
151 2 24.4498 12.2207 1.7461 
189 2 24.4702 13.9773 0.00465865 
192 2 26.2103 13.9903 1.74989 
550 2 26.1986 12.2376 3.48673 
589 2 24.444 13.9892 3.50312 
154 1 29.7072 12.2231 0.013594 
155 2 27.9544 12.2159 1.74665 
193 1 27.9502 13.972 0.00744783 
196 2 29.715 13.9726 1.75262 
554 2 29.7059 12.2256 3.48236 
593 2 27.9612 13.9631 3.49523 
158 1 33.2026 12.2167 0.0064484 
159 2 31.467 12.2094 1.74069 
197 2 31.4459 13.9555 0.00447687 
200 1 33.2035 13.9666 1.73517 
558 2 33.2242 12.2131 3.48848 
561 1 34.9419 13.9719 3.48523 
597 2 31.4708 13.9715 3.48896 
162 1 1.74194 15.734 0.0103654 
163 2 0.0038307 15.7212 1.75407 
167 1 3.48875 15.7132 1.75921 
201 2 0.00371947 17.4756 0.00110763 
202 2 1.74408 19.207 0.00494278 
203 2 0.00474748 19.2273 1.7571 
204 1 1.75191 17.4622 1.74661 
205 1 3.49258 17.4685 0.00523606 
207 1 3.47173 19.2258 1.75027 
562 2 1.7455 15.7079 3.48582 
601 2 0.00598135 17.47 3.50652 
602 2 1.73947 19.2308 3.49054 
605 1 3.48032 17.4785 3.49899 
166 1 5.24706 15.7414 0.0112261 
171 1 6.989 15.7277 1.76942 
206 2 5.22542 19.2119 0.00144486 
208 2 5.21296 17.4794 1.7683 
209 2 6.97571 17.4697 0.009687 
211 2 6.96657 19.2233 1.75356 
566 2 5.24493 15.7312 3.49197 
606 1 5.21068 19.2369 3.49526 
609 1 6.98121 17.4941 3.49289 
175 2 10.4792 15.7075 1.73812 
210 2 8.73161 19.2178 0.0157266 
212 2 8.72886 17.4696 1.76037 
215 2 10.4822 19.2185 1.76385 
570 1 8.73825 15.7218 3.49931 
610 1 8.72178 19.224 3.49305 
613 2 10.4784 17.4689 3.49261 
179 1 13.9754 15.725 1.75553 
214 2 12.2395 19.2215 0.0158903 
216 2 12.2494 17.4707 1.75632 
219 2 13.9943 19.2011 1.76191 
574 2 12.2282 15.7224 3.49976 
614 1 12.2346 19.2186 3.49844 
617 1 13.974 17.4753 3.51045 
178 2 15.7224 15.7429 0.00728596 
183 2 17.4588 15.734 1.74834 
220 1 15.714 17.4778 1.74628 
222 2 19.2124 19.2171 0.00221716 
223 1 17.4657 19.2131 1.74 
224 1 19.2125 17.4735 1.75245 
578 2 15.7124 15.7183 3.49238 
582 2 19.2246 15.7337 3.50964 
618 1 15.7385 19.213 3.50695 
621 2 17.4628 17.4734 3.48977 
622 2 19.212 19.2126 3.4868 
187 2 20.97 15.7455 1.76233 
225 2 20.9663 17.4779 0.0119431 
226 2 22.7384 19.2209 0.00554483 
227 1 20.9716 19.2109 1.7507 
228 1 22.7244 17.4706 1.74542 
586 1 22.7082 15.7395 3.50525 
625 2 20.979 17.4802 3.50443 
626 2 22.7354 19.2101 3.49972 
191 2 24.4649 15.7428 1.74572 
230 1 26.211 19.2187 0.00514748 
231 1 24.4782 19.2072 1.75776 
232 1 26.2253 17.4657 1.7537 
590 1 26.2284 15.7144 3.51371 
629 1 24.4804 17.4634 3.49219 
630 1 26.2199 19.2236 3.50379 
195 2 27.9553 15.7314 1.74287 
235 1 27.9594 19.2125 1.74398 
236 2 29.6973 17.4708 1.7558 
594 2 29.7065 15.7196 3.50946 
633 2 27.9538 17.4767 3.49795 
634 2 29.7 19.2228 3.50479 
199 2 31.4609 15.7206 1.74338 
239 2 31.4426 19.2256 1.74985 
240 2 33.2041 17.4725 1.74296 
598 2 33.2067 15.7292 3.50006 
637 2 31.4582 17.4741 3.50474 
638 1 33.2051 19.2096 3.49006 
242 2 1.72284 22.7243 0.00200172 
244 1 1.73067 20.9707 1.73661 
247 2 3.495 22.7024 1.7532 
642 2 1.72962 22.725 3.48754 
645 2 3.47468 20.9759 3.49149 
248 1 5.24227 20.9619 1.7317 
251 1 6.98859 22.711 1.73972 
646 2 5.25293 22.7033 3.49173 
649 2 6.97922 20.9671 3.49866 
250 2 8.73727 22.7159 0.0171172 
252 2 8.71963 20.9778 1.75977 
255 2 10.4652 22.7218 1.75223 
650 1 8.72099 22.7245 3.49205 
653 2 10.4716 20.9588 3.49808 
254 2 12.2349 22.7206 0.0116331 
256 2 12.2327 20.9679 1.75651 
257 2 13.992 20.9589 0.0115717 
259 2 13.9803 22.7225 1.77226 
654 2 12.2196 22.7162 3.49877 
657 2 13.9895 20.9539 3.50278 
258 2 15.7336 22.7117 0.00234113 
260 2 15.7429 20.9474 1.74482 
263 2 17.4797 22.716 1.75573 
264 2 19.2177 20.9459 1.74696 
658 2 15.7377 22.7001 3.5145 
661 1 17.4753 20.955 3.50389 
662 2 19.2299 22.7141 3.49668 
265 2 20.9718 20.9777 0.014093 
266 1 22.7078 22.7084 0.0128791 
267 2 20.9804 22.7136 1.75463 
268 2 22.7325 20.956 1.75596 
665 1 20.9796 20.9434 3.49483 
666 1 22.7096 22.7244 3.5057 
269 1 24.4796 20.974 0.0042891 
270 1 26.2216 22.7243 0.0154169 
271 1 24.4589 22.7244 1.76403 
272 1 26.2173 20.9763 1.76373 
669 2 24.4586 20.9725 3.48678 
670 2 26.2224 22.7236 3.49208 
273 2 27.9416 20.9605 0.00423774 
274 2 29.7135 22.7149 0.00449882 
275 2 27.9697 22.7142 1.76033 
276 2 29.7075 20.9697 1.74113 
673 2 27.9661 20.9593 3.50176 
674 1 29.7154 22.7073 3.49533 
243 2 34.9218 22.7168 1.73728 
279 1 31.46 22.7096 1.74601 
280 1 33.1855 20.9627 1.74062 
641 1 34.9365 20.9672 3.49043 
677 2 31.4618 20.9617 3.49738 
678 2 33.1858 22.709 3.48434 
284 1 1.74817 24.4686 1.74972 
285 2 3.48443 24.4656 0.000781822 
287 2 3.50133 26.2018 1.75444 
682 1 1.73439 26.19 3.4931 
685 1 3.50802 24.4531 3.49417 
286 1 5.24553 26.1869 0.00734409 
288 2 5.24825 24.4506 1.74449 
289 2 6.98808 24.4704 0.0126563 
291 1 6.98132 26.2257 1.74894 
686 2 5.24107 26.216 3.49352 
689 1 6.99075 24.4697 3.48591 
290 2 8.718 26.2349 0.0128875 
292 1 8.72936 24.472 1.74798 
295 2 10.4737 26.2284 1.74666 
690 2 8.73412 26.2246 3.4814 
693 2 10.4687 24.4695 3.49324 
294 2 12.2453 26.2212 0.00695039 
296 2 12.2161 24.4815 1.7541 
297 2 13.9928 24.4758 0.0100874 
299 2 13.9863 26.2224 1.76399 
694 1 12.2304 26.2121 3.49983 
697 2 13.9827 24.4732 3.52135 
298 1 15.7353 26.2039 0.00345861 
300 2 15.7429 24.4653 1.751 
303 1 17.4686 26.2148 1.73602 
304 2 19.2151 24.4819 1.74046 
698 2 15.7152 26.2156 3.49915 
701 1 17.4633 24.4715 3.51263 
702 2 19.2103 26.2111 3.5054 
306 1 22.7085 26.2299 0.00651683 
307 2 20.9595 26.2231 1.75233 
308 2 22.7139 24.4656 1.75331 
705 1 20.9736 24.4808 3.49227 
706 2 22.734 26.2018 3.49547 
309 2 24.4447 24.4544 0.0123282 
310 2 26.2029 26.202 0.00459782 
311 2 24.4777 26.2059 1.74962 
312 2 26.2215 24.4613 1.76407 
709 1 24.4892 24.4757 3.50132 
710 1 26.218 26.2269 3.50256 
313 2 27.966 24.4705 0.0031472 
314 2 29.7165 26.2258 0.00128263 
315 1 27.9645 26.217 1.74713 
316 2 29.7196 24.4644 1.75986 
713 2 27.9687 24.4748 3.49767 
714 1 29.7194 26.2234 3.49948 
283 2 34.9333 26.1905 1.73119 
319 2 31.4465 26.2101 1.73873 
320 1 33.1748 24.4606 1.72992 
681 1 34.9136 24.4678 3.48277 
717 2 31.4568 24.4644 3.50004 
718 2 33.1894 26.2179 3.48304 
324 2 1.7384 27.9338 1.74273 
327 2 3.49404 29.6957 1.75533 
722 2 1.75175 29.693 3.49759 
725 2 3.48226 27.9558 3.49224 
326 1 5.22745 29.7051 0.00359504 
328 2 5.24046 27.9598 1.73912 
331 2 6.98027 29.6976 1.74235 
726 1 5.22669 29.7081 3.50789 
729 2 6.9839 27.9632 3.48976 
332 1 8.72049 27.9753 1.74177 
333 2 10.4948 27.9808 0.0124526 
335 2 10.4789 29.7124 1.75143 
730 1 8.72895 29.7108 3.49732 
733 2 10.4997 27.9758 3.47674 
334 2 12.235 29.7211 0.00952921 
336 1 12.251 27.9669 1.7484 
339 2 13.9779 29.7105 1.74237 
734 1 12.2459 29.7177 3.49691 
737 1 13.9747 27.9673 3.50894 
338 1 15.7215 29.7093 0.0126609 
340 2 15.7219 27.9576 1.73344 
342 1 19.2311 29.7046 0.00722365 
343 2 17.4865 29.6939 1.75756 
344 1 19.2168 27.9569 1.75078 
738 2 15.7241 29.7106 3.4937 
741 2 17.4647 27.9518 3.49093 
742 2 19.2206 29.7067 3.49964 
345 2 20.9604 27.973 0.00671353 
346 2 22.697 29.7152 0.00516023 
347 1 20.9668 29.7196 1.74908 
348 2 22.7039 27.9671 1.76233 
745 2 20.9631 27.958 3.50916 
746 2 22.7074 29.7176 3.50239 
349 2 24.4597 27.9572 0.00504803 
351 2 24.4618 29.7136 1.75126 
352 2 26.2239 27.9667 1.7485 
749 2 24.4692 27.9499 3.50354 
750 2 26.2195 29.7172 3.49146 
353 2 27.966 27.9664 0.00320884 
355 1 27.9607 29.7231 1.749 
356 2 29.708 27.9679 1.74849 
753 2 27.9662 27.9623 3.48888 
754 2 29.7164 29.7192 3.48299 
323 2 34.9406 29.7059 1.74687 
357 1 31.4516 27.967 0.0120039 
359 2 31.4643 29.714 1.74068 
360 1 33.1968 27.9577 1.73426 
721 2 34.9374 27.9414 3.48861 
757 2 31.4673 27.9702 3.49139 
758 1 33.2099 29.7033 3.50475 
363 1 0.00716757 33.1802 1.74014 
364 2 1.739 31.4474 1.74654 
365 2 3.49676 31.4498 0.0121303 
367 2 3.47932 33.2111 1.74446 
405 2 3.49124 34.9409 3.49965 
762 2 1.73345 33.1974 3.49291 
765 1 3.48722 31.4539 3.48608 
366 1 5.24171 33.2122 0.0107139 
368 2 5.23697 31.454 1.75023 
369 2 6.98477 31.4502 0.0034132 
371 2 7.0009 33.2188 1.74693 
766 2 5.23639 33.1972 3.4807 
769 2 6.97468 31.4429 3.51389 
13 2 10.4829 34.9368 0.00725568 
370 2 8.73968 33.184 0.0125343 
372 2 8.73064 31.4427 1.76031 
373 1 10.4721 31.4534 0.00673952 
375 1 10.4694 33.1833 1.76119 
770 2 8.73362 33.1879 3.4961 
773 2 10.4793 31.4436 3.49926 
16 2 12.2225 34.9349 1.75253 
17 2 13.9731 34.9273 0.000348799 
374 1 12.2303 33.197 0.0109636 
376 2 12.2285 31.457 1.75314 
379 1 13.9858 33.1852 1.76148 
774 2 12.2329 33.1938 3.49711 
777 2 13.9869 31.4487 3.50222 
20 2 15.7263 34.9429 1.76195 
380 2 15.7286 31.4533 1.76022 
381 2 17.4759 31.4342 0.0116092 
383 2 17.4639 33.2008 1.75179 
384 2 19.2171 31.4573 1.73729 
778 2 15.7218 33.2093 3.51638 
781 1 17.4744 31.4612 3.50678 
782 2 19.2092 33.2157 3.49723 
25 2 20.9587 34.9377 0.000832642 
385 1 20.9668 31.4629 0.000641268 
387 2 20.9589 33.2129 1.74282 
388 2 22.7088 31.4736 1.74495 
785 2 20.9544 31.4714 3.48659 
786 2 22.7251 33.2271 3.48901 
391 2 24.4694 33.2232 1.74616 
392 2 26.2166 31.4739 1.73812 
789 2 24.4685 31.4738 3.49477 
790 1 26.2172 33.1977 3.5051 
395 2 27.9745 33.2139 1.73844 
396 2 29.7189 31.4628 1.73673 
793 2 27.977 31.4709 3.4918 
794 1 29.724 33.2004 3.48936 
1 1 34.9395 34.9348 0.00648595 
37 2 31.4635 34.9415 0.00123635 
40 2 33.195 34.9292 1.73801 
398 2 33.1998 33.1732 0.00179582 
399 1 31.4614 33.1782 1.73698 
400 1 33.2111 31.4474 1.75399 
761 2 34.9437 31.4535 3.5023 
797 1 31.4633 31.4483 3.48769 
798 1 33.2091 33.2062 3.48901 
404 2 1.74013 0.0145809 5.25655 
407 2 3.50229 1.74813 5.22618 
444 1 1.74353 3.49184 5.22415 
802 2 1.74718 1.74728 6.99008 
805 1 3.49838 0.0108895 6.98533 
845 2 3.48074 3.49316 6.99147 
408 1 5.23901 0.00152632 5.22428 
411 1 6.98233 1.74029 5.25335 
448 2 5.23496 3.48675 5.2481 
806 1 5.23273 1.74461 6.98119 
809 1 6.98321 0.00458331 6.99272 
849 2 6.98269 3.48561 6.99858 
415 2 10.487 1.75243 5.2529 
452 2 8.73217 3.48718 5.23778 
810 1 8.73384 1.75292 6.99093 
853 2 10.4915 3.49339 6.9959 
419 1 13.9605 1.74151 5.26032 
456 2 12.2407 3.48547 5.25257 
814 1 12.2234 1.7447 7.00631 
857 1 13.9872 3.4691 7.00112 
420 1 15.7147 0.016577 5.26273 
423 1 17.4755 1.75395 5.24959 
424 2 19.2107 0.00787174 5.23949 
460 2 15.7116 3.47408 5.25144 
464 2 19.2346 3.49301 5.24281 
818 2 15.7286 1.75081 6.99205 
821 2 17.4763 0.00913221 7.00324 
822 2 19.2214 1.74997 6.99385 
861 2 17.465 3.49837 7.00634 
427 1 20.9755 1.73593 5.25258 
428 2 22.7281 0.0178378 5.23655 
468 1 22.6983 3.49306 5.22965 
826 1 22.7245 1.74437 6.99459 
865 2 20.9802 3.49053 6.98081 
431 2 24.461 1.75497 5.22887 
432 1 26.2223 0.0095791 5.23655 
472 2 26.2031 3.49957 5.23645 
829 2 24.4655 0.00142444 6.98674 
830 2 26.2136 1.7488 6.98165 
869 2 24.4404 3.50283 6.99156 
435 1 27.9592 1.75011 5.23747 
436 2 29.7195 0.00444375 5.22718 
476 2 29.7097 3.49174 5.23358 
833 2 27.9689 0.01307 6.97867 
834 1 29.718 1.75731 6.98187 
873 2 27.9678 3.50069 6.97858 
403 2 34.9329 1.75172 5.23828 
439 1 31.4605 1.75533 5.24573 
440 1 33.1876 0.00891081 5.22196 
480 2 33.2039 3.48897 5.2451 
801 1 34.9268 0.00893112 6.9854 
837 2 31.4608 0.00310655 6.96902 
838 2 33.1911 1.74909 7.00084 
841 1 34.9411 3.4934 6.98473 
877 2 31.4572 3.5165 6.98793 
443 2 0.0010548 5.23429 5.24517 
447 2 3.49295 5.23378 5.22895 
484 2 1.75827 6.97869 5.24251 
842 2 1.74324 5.23741 6.98035 
881 2 0.00317507 6.97813 6.9871 
885 1 3.49064 6.97229 6.98363 
451 2 6.99395 5.22945 5.2535 
488 1 5.24386 6.9774 5.2423 
846 2 5.2385 5.24547 7.00314 
889 1 6.99101 6.96646 6.98868 
455 1 10.4812 5.22914 5.2416 
492 2 8.73017 6.9859 5.24609 
850 2 8.74068 5.22573 7.00793 
893 1 10.4734 6.97019 6.99064 
459 1 13.986 5.2345 5.25905 
496 2 12.2401 6.97768 5.25835 
854 2 12.237 5.22998 6.99428 
897 1 13.9787 6.98592 6.99744 
463 2 17.4782 5.22544 5.26141 
500 2 15.712 6.98951 5.25275 
504 2 19.2149 6.98255 5.24247 
858 1 15.7119 5.23062 6.99973 
862 1 19.2341 5.22487 7.00295 
901 1 17.4879 6.98293 6.98913 
467 1 20.9574 5.25209 5.24023 
508 2 22.7214 6.9754 5.24214 
866 2 22.6943 5.23947 6.98704 
905 2 20.9529 6.99089 6.98869 
471 2 24.4549 5.25221 5.23471 
512 1 26.2123 7.00033 5.22748 
870 2 26.2192 5.26378 6.97832 
909 2 24.4685 7.00388 6.98652 
475 1 27.9563 5.23546 5.23396 
516 2 29.6907 6.98389 5.23557 
874 1 29.7068 5.25828 6.97918 
913 2 27.9608 6.99884 6.97779 
479 2 31.4461 5.23989 5.24762 
520 2 33.196 7.00406 5.23928 
878 2 33.1921 5.25037 6.99638 
917 1 31.4514 7.00033 6.97798 
483 2 0.00847015 8.73912 5.2391 
487 2 3.50895 8.72367 5.25976 
524 2 1.73773 10.484 5.24491 
882 1 1.73817 8.72248 6.99133 
925 1 3.49047 10.4764 6.9834 
491 1 6.98209 8.7404 5.25298 
528 2 5.25432 10.4686 5.25793 
886 1 5.24922 8.71303 6.99764 
929 1 6.97806 10.4883 7.00335 
495 2 10.4783 8.73035 5.25597 
532 1 8.72425 10.4831 5.24672 
890 2 8.72222 8.74323 6.986 
933 1 10.4845 10.4811 7.00341 
499 1 13.9728 8.74119 5.25445 
536 2 12.2225 10.4834 5.24427 
894 2 12.2372 8.73201 6.99865 
937 1 13.9791 10.4944 6.99259 
503 2 17.4689 8.72868 5.24922 
540 1 15.7315 10.4703 5.24773 
544 2 19.2105 10.4708 5.23081 
898 1 15.709 8.73411 6.98452 
902 1 19.2334 8.74632 6.98689 
941 2 17.4658 10.4624 6.98555 
507 2 20.9647 8.72831 5.22989 
548 2 22.7105 10.485 5.21965 
906 2 22.7126 8.7302 6.99019 
945 2 20.9662 10.4795 6.9672 
511 1 24.4442 8.7339 5.22488 
552 2 26.2135 10.4782 5.22977 
910 1 26.2144 8.73909 6.96256 
949 2 24.4598 10.4691 6.98797 
515 1 27.9723 8.73565 5.23553 
556 2 29.7097 10.494 5.224 
914 2 29.7015 8.72836 6.995 
953 2 27.9748 10.4734 6.96531 
519 2 31.4368 8.74056 5.23072 
560 1 33.2028 10.4651 5.2416 
918 2 33.2003 8.74424 6.99285 
921 2 34.941 10.4832 6.98645 
957 1 31.4435 10.4755 6.98263 
527 2 3.48755 12.2237 5.24049 
564 1 1.74684 13.9626 5.2368 
922 2 1.74419 12.2266 6.97781 
965 2 3.48291 13.97 6.99632 
531 2 6.98199 12.2198 5.25022 
568 2 5.22971 13.9834 5.25294 
926 1 5.23495 12.2362 6.99828 
969 1 6.97979 13.9883 6.99141 
535 2 10.4747 12.2136 5.23098 
572 2 8.73328 13.9671 5.23663 
930 1 8.7421 12.2256 6.9919 
973 2 10.4659 13.9662 6.97387 
539 2 13.9774 12.2248 5.25193 
576 1 12.2129 13.9794 5.24856 
934 2 12.2139 12.2238 6.99234 
977 2 13.971 13.9608 6.97889 
543 2 17.4779 12.2412 5.24226 
580 1 15.7284 13.9771 5.25698 
584 2 19.2233 13.9943 5.22934 
938 2 15.727 12.2127 6.9853 
942 2 19.2235 12.226 6.98367 
981 2 17.4772 13.9879 6.9815 
547 1 20.9557 12.2194 5.22445 
588 1 22.7014 13.9678 5.24125 
946 2 22.7119 12.2214 6.96728 
985 2 20.9627 13.9905 6.96599 
551 2 24.455 12.2199 5.24084 
592 1 26.2035 13.9603 5.23516 
950 2 26.2103 12.2173 6.98044 
989 2 24.4669 13.9718 6.98875 
555 1 27.9634 12.2395 5.23046 
596 1 29.7236 13.9594 5.23917 
954 2 29.7177 12.2222 6.97672 
993 2 27.9569 13.9569 6.97442 
523 1 34.9428 12.2166 5.239 
559 2 31.464 12.2148 5.23582 
600 2 33.2149 13.9699 5.23284 
958 1 33.1971 12.2203 6.97951 
961 1 34.9443 13.9738 6.97979 
997 2 31.4725 13.961 6.98811 
563 1 0.00606238 15.7154 5.23603 
567 2 3.47814 15.7249 5.22874 
604 2 1.73467 17.4729 5.2341 
607 2 3.4872 19.2376 5.23071 
962 2 1.73471 15.7115 6.98468 
1001 1 0.00177616 17.4733 6.99844 
1002 2 1.73011 19.2203 6.99477 
1005 2 3.47781 17.4661 6.96646 
571 2 6.98002 15.733 5.2339 
608 1 5.23409 17.4588 5.22952 
611 1 6.96806 19.2163 5.23149 
966 1 5.22107 15.7318 6.98835 
1006 2 5.23104 19.2079 6.96314 
1009 2 6.97192 17.4574 6.98033 
575 2 10.4739 15.7316 5.24069 
612 2 8.71679 17.4914 5.23512 
615 1 10.4821 19.2086 5.22751 
970 2 8.71329 15.7151 6.98399 
1010 2 8.72221 19.2199 6.9856 
1013 2 10.4671 17.4768 6.98741 
579 2 13.9826 15.7095 5.24383 
616 2 12.2287 17.4686 5.24014 
619 2 13.9701 19.2278 5.23732 
974 2 12.2254 15.7223 6.98794 
1014 2 12.2213 19.2205 6.97896 
1017 2 13.9892 17.4677 6.97889 
583 1 17.462 15.7283 5.23316 
620 2 15.7342 17.4637 5.23541 
623 2 17.4747 19.2147 5.24278 
624 1 19.209 17.4753 5.25136 
978 2 15.7376 15.7214 6.99764 
982 1 19.2179 15.7216 6.97396 
1018 2 15.7246 19.2165 6.99622 
1021 1 17.4677 17.4652 6.99082 
1022 2 19.231 19.197 6.99916 
587 1 20.9759 15.7428 5.23478 
627 2 20.9805 19.2041 5.24224 
628 1 22.7304 17.4804 5.25452 
986 2 22.7032 15.7376 6.97209 
1025 1 20.9662 17.4662 6.99248 
1026 1 22.7218 19.2185 6.99104 
591 2 24.4533 15.7183 5.23902 
631 2 24.4721 19.2147 5.23541 
632 2 26.2159 17.4555 5.23036 
990 2 26.2139 15.7066 6.98544 
1029 1 24.4818 17.4661 6.98326 
1030 2 26.209 19.2168 6.9751 
595 2 27.9746 15.7049 5.24391 
635 1 27.9574 19.2098 5.24962 
636 1 29.71 17.4775 5.24704 
994 2 29.7224 15.7143 6.98282 
1033 2 27.9544 17.4665 6.97682 
1034 2 29.7148 19.2253 6.99171 
599 2 31.4619 15.7251 5.25444 
603 1 34.9415 19.213 5.22968 
639 2 31.4627 19.2106 5.25043 
640 1 33.2094 17.4722 5.25747 
998 1 33.2119 15.7172 6.98006 
1037 2 31.4678 17.4712 6.98932 
1038 2 33.2101 19.2174 6.99545 
644 1 1.72776 20.9764 5.25698 
647 1 3.47818 22.7235 5.23031 
1042 2 1.72264 22.7208 6.98542 
1045 2 3.48939 20.9818 6.98337 
648 1 5.23579 20.9833 5.24389 
651 1 6.99073 22.7141 5.23086 
1046 2 5.2435 22.7346 6.97786 
1049 2 6.97965 20.9732 6.98731 
652 1 8.73192 20.9614 5.23159 
655 2 10.4677 22.7051 5.23919 
1050 2 8.71911 22.7121 6.97811 
1053 2 10.4731 20.9557 6.9868 
656 2 12.2134 20.966 5.24663 
659 1 13.9668 22.7042 5.24532 
1054 2 12.2276 22.7188 6.99823 
1057 2 13.9734 20.976 6.99124 
660 2 15.7336 20.9684 5.24879 
663 1 17.4933 22.6978 5.24869 
664 2 19.2363 20.9511 5.23753 
1058 2 15.7227 22.7173 6.98819 
1061 2 17.4874 20.9559 6.99238 
1062 2 19.2332 22.7248 6.98928 
667 2 20.9674 22.7286 5.23028 
668 1 22.7167 20.9732 5.23423 
1065 2 20.9773 20.9619 6.97968 
1066 2 22.7169 22.7133 6.97798 
671 2 24.48 22.7307 5.2241 
672 2 26.2179 20.9767 5.23862 
1069 2 24.4633 20.9588 6.97819 
1070 2 26.2338 22.7151 6.98492 
675 1 27.9723 22.714 5.24016 
676 2 29.7063 20.9614 5.25392 
1073 2 27.9762 20.9747 6.98556 
1074 1 29.7114 22.7167 6.99167 
643 1 34.9299 22.7222 5.22086 
679 2 31.4475 22.716 5.2482 
680 2 33.21 20.9615 5.22965 
1041 2 34.9302 20.9634 6.97829 
1077 1 31.4569 20.9615 6.98603 
1078 1 33.2013 22.71 6.98436 
684 2 1.72616 24.4504 5.2122 
687 2 3.50073 26.2003 5.22879 
1082 2 1.75115 26.1989 6.97645 
1085 2 3.48959 24.4653 6.96624 
688 2 5.25426 24.4571 5.22873 
691 1 6.99729 26.2344 5.22935 
1086 1 5.24667 26.201 6.97947 
1089 2 6.9911 24.4781 6.97922 
692 2 8.72261 24.4609 5.225 
695 2 10.4789 26.219 5.24045 
1090 2 8.71673 26.228 6.98969 
1093 2 10.4792 24.4683 6.98909 
696 2 12.233 24.4634 5.24542 
699 1 13.9576 26.2249 5.25068 
1094 2 12.2215 26.2141 6.99013 
1097 1 13.9696 24.4648 6.99463 
700 2 15.7186 24.4565 5.25862 
703 1 17.4635 26.2146 5.23942 
704 2 19.2243 24.4797 5.23941 
1098 2 15.7302 26.2091 6.98987 
1101 2 17.4778 24.4689 6.97383 
1102 1 19.2197 26.2052 6.9793 
707 1 20.985 26.205 5.24247 
708 2 22.7276 24.4709 5.2434 
1105 1 20.9763 24.471 6.99886 
1106 2 22.7023 26.2296 6.99561 
711 1 24.4691 26.2192 5.24437 
712 1 26.2373 24.4676 5.23781 
1109 2 24.4603 24.4702 6.97072 
1110 2 26.2213 26.2149 6.96754 
715 2 27.9649 26.2145 5.23217 
716 2 29.7176 24.4629 5.23442 
1113 2 27.9797 24.4555 6.99178 
1114 2 29.714 26.2037 6.97585 
683 2 34.9234 26.1895 5.23596 
719 1 31.4685 26.2217 5.23996 
720 1 33.1781 24.4489 5.24208 
1081 2 34.919 24.4473 6.9866 
1117 1 31.4502 24.4648 6.986 
1118 2 33.1945 26.197 6.99183 
723 2 0.00820717 29.7025 5.24579 
724 2 1.73407 27.9434 5.23721 
727 1 3.48378 29.7065 5.24358 
1122 2 1.74089 29.706 6.98937 
1125 2 3.48902 27.947 6.98192 
728 2 5.23288 27.9575 5.24302 
731 2 6.98624 29.6998 5.24893 
1126 2 5.24031 29.698 6.9777 
1129 2 6.98597 27.9553 7.00333 
732 2 8.74016 27.9818 5.23371 
735 2 10.4726 29.7204 5.24084 
1130 1 8.72947 29.7047 7.01149 
1133 2 10.4714 27.9673 7.00667 
736 2 12.2272 27.9756 5.23455 
739 2 13.9868 29.7158 5.2456 
1134 2 12.2128 29.7168 6.97858 
1137 2 13.9741 27.956 6.98707 
740 2 15.7288 27.9665 5.25185 
743 1 17.4661 29.7115 5.23279 
744 1 19.2208 27.95 5.24238 
1138 2 15.7475 29.7071 6.99322 
1141 2 17.4836 27.9543 6.99554 
1142 1 19.1982 29.7014 6.9754 
747 1 20.966 29.7257 5.24146 
748 1 22.7064 27.9637 5.2387 
1145 1 20.9622 27.9751 6.98234 
1146 1 22.7265 29.7091 6.97456 
751 2 24.4579 29.6975 5.23436 
752 1 26.2213 27.9701 5.23667 
1149 2 24.4575 27.9649 6.973 
1150 2 26.2057 29.7119 6.99228 
755 2 27.9686 29.7105 5.2431 
756 2 29.7209 27.9691 5.24922 
1153 2 27.9676 27.9599 6.98917 
1154 2 29.7173 29.7229 7.00566 
759 2 31.4598 29.7072 5.24577 
760 1 33.2098 27.9615 5.24455 
1121 2 34.9421 27.9561 6.99643 
1157 2 31.4694 27.9517 7.00198 
1158 2 33.2067 29.6989 6.98863 
764 2 1.74552 31.4521 5.24745 
767 2 3.4894 33.1984 5.23584 
1162 2 1.73236 33.2117 6.99498 
1165 2 3.4942 31.4609 6.97714 
768 2 5.2354 31.457 5.24676 
771 2 6.98546 33.2056 5.24801 
1166 2 5.24317 33.2135 6.99416 
1169 1 6.98268 31.4467 6.98914 
412 2 8.72549 34.9393 5.25813 
772 1 8.72879 31.4487 5.25079 
775 2 10.4926 33.1905 5.24778 
813 1 10.4908 34.9385 6.98327 
1170 2 8.73547 33.2004 6.99851 
1173 2 10.4642 31.4616 6.99575 
416 2 12.2374 34.9348 5.25364 
776 1 12.2247 31.4571 5.24311 
779 1 13.9744 33.1923 5.24607 
817 2 13.959 34.9418 6.9957 
1174 1 12.2326 33.1864 6.99487 
1177 2 13.9752 31.459 6.98369 
780 1 15.7267 31.454 5.24597 
783 2 17.4479 33.2018 5.26516 
784 2 19.2003 31.4477 5.25093 
1178 2 15.7154 33.2017 7.00381 
1181 2 17.479 31.4509 6.99846 
1182 1 19.2119 33.2019 6.98203 
787 2 20.9617 33.2029 5.23827 
788 2 22.7157 31.4514 5.24163 
825 2 20.9738 34.9408 6.9792 
1185 2 20.9528 31.4402 6.98741 
1186 2 22.7039 33.1992 6.9938 
791 2 24.4748 33.2103 5.23852 
792 2 26.228 31.4574 5.24272 
1189 2 24.4637 31.4597 6.98828 
1190 2 26.232 33.218 6.98083 
795 2 27.9825 33.2154 5.24148 
796 1 29.7136 31.4581 5.23303 
1193 2 27.978 31.4653 6.99387 
1194 1 29.7144 33.1959 6.99217 
763 2 34.9291 33.2073 5.24184 
799 1 31.4596 33.1917 5.23437 
800 2 33.1956 31.451 5.22867 
1161 1 34.9323 31.4472 6.99432 
1197 2 31.4554 31.4555 6.98171 
1198 2 33.1946 33.2102 6.97447 
803 1 0.00425344 1.74456 8.72351 
804 1 1.73992 0.000509842 8.73147 
807 2 3.49893 1.74915 8.73477 
844 2 1.73771 3.48999 8.7392 
1201 2 0.00747604 0.021054 10.4631 
1202 1 1.74087 1.76088 10.4683 
1205 2 3.48296 0.0145999 10.4682 
1241 1 0.000671148 3.4957 10.477 
1245 1 3.50331 3.48263 10.4941 
808 1 5.23532 0.00592186 8.72794 
811 1 6.97102 1.74016 8.72663 
848 1 5.24559 3.49835 8.7362 
1206 1 5.24039 1.74169 10.4822 
1209 2 6.98274 0.0109173 10.477 
1249 1 6.97752 3.47637 10.4819 
812 1 8.74501 0.0056613 8.72599 
815 2 10.4728 1.74346 8.73413 
852 2 8.72828 3.48796 8.75091 
1210 2 8.72048 1.73994 10.4786 
1253 1 10.4853 3.46989 10.4774 
819 2 13.9824 1.7339 8.72965 
856 1 12.2299 3.48809 8.72856 
1214 2 12.2308 1.74183 10.4776 
1257 2 13.969 3.49995 10.4761 
823 1 17.4801 1.75677 8.75874 
860 2 15.715 3.49004 8.75921 
864 2 19.238 3.48488 8.75437 
1218 2 15.736 1.73114 10.491 
1222 1 19.2301 1.74292 10.5007 
1261 2 17.4753 3.48585 10.5007 
827 2 20.9662 1.73627 8.73025 
868 1 22.7003 3.49678 8.73217 
1226 2 22.7155 1.75802 10.4704 
1265 2 20.984 3.49139 10.4978 
831 2 24.452 1.74338 8.73368 
832 1 26.2209 0.0173049 8.73765 
872 2 26.1889 3.50355 8.72655 
1229 2 24.4632 0.0128397 10.4838 
1230 1 26.1939 1.76544 10.4719 
1269 1 24.449 3.50063 10.4637 
835 2 27.9612 1.75225 8.73168 
836 2 29.7089 0.00510084 8.72343 
876 2 29.7169 3.51168 8.7285 
1233 2 27.9495 0.0284014 10.4799 
1234 1 29.6989 1.75752 10.478 
1273 2 27.9488 3.50376 10.4769 
839 2 31.4553 1.76905 8.736 
840 1 33.186 0.00989742 8.73768 
880 1 33.1939 3.51452 8.73717 
1237 2 31.4535 0.0347942 10.4807 
1238 1 33.2062 1.7678 10.4636 
1277 1 31.4437 3.48699 10.4813 
843 1 0.00874868 5.24673 8.73233 
847 2 3.4984 5.23336 8.74505 
884 2 1.75952 6.97875 8.73262 
1242 2 1.74843 5.2217 10.4988 
1285 2 3.50473 6.97631 10.4772 
851 1 6.9748 5.2437 8.75582 
888 1 5.24169 6.98193 8.738 
1246 1 5.24172 5.24394 10.4871 
1289 1 6.98605 6.9927 10.5011 
855 1 10.4914 5.23641 8.74494 
892 2 8.72908 6.96595 8.74294 
1250 1 8.74005 5.22897 10.4898 