supercell
4001 atoms
2 atom types
0.0 34.945 xlo xhi
0.0 34.945 ylo yhi
0.0 34.945 zlo zhi

Atoms # atomic

