LAMMPS (7 Aug 2019)
Running on 13 partitions of processors
Step MaxReplicaForce MaxAtomForce GradV0 GradV1 GradVc EBF EBR RDT RD1 PE1 RD2 PE2 ... RDN PEN
4    2.4201184    1.0906154 0.0039633564  0.038183213    2.4221714   0.38508181   0.34764016     1.768445            0   -17529.271  0.083333333   -17529.239   0.16666667    -17529.16         0.25   -17529.062   0.33333333   -17528.974   0.41666667   -17528.915          0.5   -17528.886   0.58333333   -17528.887   0.66666667   -17528.928         0.75   -17529.009   0.83333333   -17529.108   0.91666667   -17529.196            1   -17529.234 
504  0.016312119 0.0061891032 4.9471388e-05 5.0957125e-05  0.011598069   0.15105645   0.11365968    2.3528308            0   -17529.271  0.083246865   -17529.253   0.16651457    -17529.21   0.24980913   -17529.178     0.333034   -17529.171   0.41609531   -17529.156   0.49914788    -17529.13   0.58252885   -17529.126    0.6660707   -17529.128   0.74959196    -17529.12   0.83308083   -17529.143   0.91654992   -17529.205            1   -17529.234 
1004 0.0010500584 0.00037525373 1.0314068e-06 1.0517266e-06  0.010657099    0.1510406   0.11364384    2.3528598            0   -17529.271  0.083348121   -17529.253    0.1666939    -17529.21   0.25003566   -17529.179   0.33337166   -17529.172   0.41669639   -17529.156   0.50001548   -17529.127   0.58333777   -17529.127   0.66666272   -17529.128   0.74999257    -17529.12   0.83332623   -17529.143   0.91666242   -17529.205            1   -17529.234 
1504 0.00010180133 3.6034426e-05 1.8923771e-08 1.938396e-08  0.010190922    0.1510462   0.11364944    2.3507458            0   -17529.271  0.083334476   -17529.253   0.16666876    -17529.21   0.25000271   -17529.179   0.33333621   -17529.172   0.41666878   -17529.157   0.50000092   -17529.127   0.58333331   -17529.127   0.66666589   -17529.128   0.74999896    -17529.12   0.83333242   -17529.143   0.91666614   -17529.205            1   -17529.234 
2004 1.0068866e-05 3.204013e-06 3.5205192e-10 3.6361045e-10  0.010143734   0.15104675   0.11364999     2.350536            0   -17529.271  0.083333379   -17529.253   0.16666676    -17529.21   0.25000012   -17529.179   0.33333346   -17529.172   0.41666672   -17529.157   0.49999995   -17529.127   0.58333321   -17529.127   0.66666648   -17529.128   0.74999981    -17529.12   0.83333318   -17529.143   0.91666658   -17529.205            1   -17529.234 
2504 5.751717e-06 2.0408448e-07 7.2632907e-12   7.5131e-12  0.010137129   0.15104683   0.11365006    2.3505105            0   -17529.271  0.083333262   -17529.253   0.16666655    -17529.21   0.24999985   -17529.179   0.33333317   -17529.172    0.4166665   -17529.157   0.49999984   -17529.127   0.58333318   -17529.127   0.66666652   -17529.128   0.74999987    -17529.12   0.83333324   -17529.143   0.91666662   -17529.205            1   -17529.234 
3004 7.3060156e-06 4.9405705e-07 3.5539143e-12 3.5528599e-12  0.010134006   0.15104687    0.1136501    2.3505019            0   -17529.271  0.083333231   -17529.253   0.16666649    -17529.21   0.24999978   -17529.179   0.33333309   -17529.172   0.41666643   -17529.157   0.49999978   -17529.127   0.58333313   -17529.127   0.66666649   -17529.128   0.74999985    -17529.12   0.83333323   -17529.143   0.91666661   -17529.205            1   -17529.234 
3504 9.2939217e-06 6.6599142e-07 3.546382e-12 3.5045653e-12  0.010130566   0.15104691   0.11365014    2.3504932            0   -17529.271  0.083333202   -17529.253   0.16666644    -17529.21   0.24999972   -17529.179   0.33333302   -17529.172   0.41666636   -17529.157   0.49999972   -17529.127   0.58333308   -17529.127   0.66666644   -17529.128   0.74999981    -17529.12    0.8333332   -17529.143   0.91666659   -17529.205            1   -17529.234 
4004 1.1820731e-05 8.5310949e-07 3.5392496e-12 3.5126668e-12  0.010126276   0.15104696    0.1136502    2.3504827            0   -17529.271  0.083333167   -17529.253   0.16666638    -17529.21   0.24999964   -17529.179   0.33333294   -17529.172   0.41666628   -17529.157   0.49999965   -17529.127   0.58333301   -17529.127   0.66666638   -17529.128   0.74999976    -17529.12   0.83333316   -17529.143   0.91666658   -17529.205            1   -17529.234 
4504 1.5048794e-05 1.3211037e-06 3.5263685e-12 3.5097906e-12  0.010120864   0.15104703   0.11365026    2.3504695            0   -17529.271  0.083333122   -17529.253   0.16666631    -17529.21   0.24999955   -17529.179   0.33333284   -17529.172   0.41666618   -17529.157   0.49999955   -17529.127   0.58333293   -17529.127    0.6666663   -17529.128    0.7499997    -17529.12   0.83333312   -17529.143   0.91666655   -17529.205            1   -17529.234 
5004 1.9153925e-05 1.639107e-06 3.5415283e-12 3.5031958e-12  0.010114084   0.15104711   0.11365034    2.3504533            0   -17529.271  0.083333066   -17529.253   0.16666621    -17529.21   0.24999943   -17529.179    0.3333327   -17529.172   0.41666605   -17529.157   0.49999944   -17529.127   0.58333282   -17529.127   0.66666621   -17529.128   0.74999962    -17529.12   0.83333306   -17529.143   0.91666652   -17529.205            1   -17529.234 
Climbing replica = 10
Step MaxReplicaForce MaxAtomForce GradV0 GradV1 GradVc EBF EBR RDT RD1 PE1 RD2 PE2 ... RDN PEN
5004  0.010114084 0.0040067266 3.5415283e-12 3.5031958e-12  0.010114084   0.15104711   0.11365034    2.3504533            0   -17529.271  0.083333066   -17529.253   0.16666621    -17529.21   0.24999943   -17529.179    0.3333327   -17529.172   0.41666605   -17529.157   0.49999944   -17529.127   0.58333282   -17529.127   0.66666621   -17529.128   0.74999962    -17529.12   0.83333306   -17529.143   0.91666652   -17529.205            1   -17529.234 
5504 0.0022696095 0.00076636873 3.0043064e-12 2.9910379e-12 7.241627e-05   0.15110609   0.11370933    2.3468725            0   -17529.271  0.083844679   -17529.253   0.16768975    -17529.21   0.25153574   -17529.179   0.33538495   -17529.172   0.41924513   -17529.156   0.50310309   -17529.127   0.58694022   -17529.127   0.67076862   -17529.128   0.75457659    -17529.12   0.83638476   -17529.145   0.91819246   -17529.206            1   -17529.234 
6004 7.0065491e-05 2.2974179e-05 2.5054716e-12 2.4924179e-12 8.4991496e-07   0.15110609   0.11370932    2.3506132            0   -17529.271  0.083881975   -17529.253   0.16776421    -17529.21   0.25164685   -17529.179   0.33552995   -17529.172   0.41941392   -17529.156   0.50329848   -17529.127   0.58718299   -17529.127    0.6710675   -17529.128   0.75495191    -17529.12   0.83663461   -17529.145    0.9183173   -17529.206            1   -17529.234 
6504 3.7270438e-05 1.6836677e-06 2.5041459e-12 2.4991889e-12 1.2283381e-08   0.15110609   0.11370932    2.3507001            0   -17529.271  0.083884163   -17529.253   0.16776846    -17529.21   0.25165289   -17529.179   0.33553742   -17529.172   0.41942206   -17529.156   0.50330677   -17529.127   0.58719149   -17529.127    0.6710762   -17529.128   0.75496092    -17529.12   0.83664062   -17529.145   0.91832031   -17529.206            1   -17529.234 
7004 5.1746086e-05  1.68716e-06 2.5051259e-12 2.4955813e-12 1.9288875e-10   0.15110609   0.11370932    2.3506603            0   -17529.271  0.083883614   -17529.253   0.16776741    -17529.21   0.25165137   -17529.179   0.33553544   -17529.172   0.41941963   -17529.156   0.50330391   -17529.127   0.58718819   -17529.127   0.67107247   -17529.128   0.75495676    -17529.12   0.83663784   -17529.145   0.91831892   -17529.206            1   -17529.234 
7504 7.192759e-05 2.3920315e-06 2.5022062e-12 2.491223e-12 4.7717294e-12   0.15110609   0.11370932    2.3506039            0   -17529.271  0.083882782   -17529.253   0.16776581    -17529.21   0.25164906   -17529.179   0.33553247   -17529.172   0.41941606   -17529.156   0.50329976   -17529.127   0.58718347   -17529.127   0.67106717   -17529.128   0.75495089    -17529.12   0.83663393   -17529.145   0.91831696   -17529.206            1   -17529.234 
8004 9.9628846e-05 3.5457038e-06 2.5068615e-12 2.4922679e-12 3.6536426e-12   0.15110609   0.11370932    2.3505378            0   -17529.271  0.083881768   -17529.253   0.16776387    -17529.21   0.25164627   -17529.179   0.33552889   -17529.172   0.41941177   -17529.156   0.50329482   -17529.127   0.58717787   -17529.127   0.67106092   -17529.128     0.754944    -17529.12   0.83662933   -17529.145   0.91831467   -17529.206            1   -17529.234 
8504 0.0001376696 7.3992352e-06 2.499326e-12 2.4977766e-12 3.631958e-12   0.15110609   0.11370932    2.3504688            0   -17529.271  0.083880633   -17529.253    0.1677617    -17529.21   0.25164318   -17529.179   0.33552497   -17529.172   0.41940713   -17529.156   0.50328954   -17529.127   0.58717195   -17529.127   0.67105437   -17529.128    0.7549368    -17529.12   0.83662453   -17529.145   0.91831227   -17529.206            1   -17529.234 
9004 0.00018904362 1.1251527e-05 2.5038493e-12 2.4930576e-12 3.6278603e-12   0.15110609   0.11370932    2.3504171            0   -17529.271  0.083879588   -17529.253   0.16775974    -17529.21   0.25164042   -17529.179   0.33552155   -17529.172   0.41940322   -17529.156   0.50328526   -17529.127    0.5871673   -17529.127   0.67104935   -17529.128   0.75493141    -17529.12   0.83662094   -17529.145   0.91831047   -17529.206            1   -17529.234 
9504 0.00025710561 1.3329191e-05 2.5065967e-12 2.4920243e-12 3.6294417e-12   0.15110609   0.11370932    2.3504271            0   -17529.271  0.083879124   -17529.253   0.16775894    -17529.21   0.25163945   -17529.179   0.33552057   -17529.172    0.4194025   -17529.156   0.50328498   -17529.127   0.58716746   -17529.127   0.67104997   -17529.128   0.75493246    -17529.12   0.83662164   -17529.145   0.91831082   -17529.206            1   -17529.234 
10004 0.00034407036 2.224903e-05 2.5018759e-12 2.4965614e-12 3.635368e-12   0.15110609   0.11370932    2.3505883            0   -17529.271  0.083880281   -17529.253   0.16776135    -17529.21   0.25164329   -17529.179   0.33552606   -17529.172   0.41941003   -17529.156   0.50329483   -17529.127   0.58717962   -17529.127   0.67106449   -17529.128   0.75494926    -17529.12   0.83663284   -17529.145   0.91831642   -17529.206            1   -17529.234 
