LAMMPS (7 Aug 2019)
Processor partition = 9

# --------------- INITIALIZATION ------------------
clear
echo            none
  orthogonal box = (0 0 0) to (34.945 34.945 34.945)
  1 by 1 by 1 MPI processor grid
  reading atoms ...
  4001 atoms
  read_data CPU = 0.00264718 secs
1309 atoms in group Ni
2692 atoms in group Fe
WARNING: Using 'neigh_modify every 1 delay 0 check yes' setting during minimization (../min.cpp:168)
Neighbor list info ...
  update every 1 steps, delay 0 steps, check yes
  max neighbors/atom: 2000, page size: 100000
  master list distance cutoff = 7.6
  ghost atom cutoff = 7.6
  binsize = 3.8, bins = 10 10 10
  1 neighbor lists, perpetual/occasional/extra = 1 0 0
  (1) pair eam/alloy, perpetual
      attributes: half, newton on
      pair build: half/bin/atomonly/newton
      stencil: half/bin/3d/newton
      bin: standard
Per MPI rank memory allocation (min/avg/max) = 7.323 | 7.323 | 7.323 Mbytes
Step Temp TotEng 
       0            0   -17529.271 
       4            0   -17529.271 
Loop time of 0.0929834 on 1 procs for 4 steps with 4001 atoms

99.8% CPU use with 1 MPI tasks x no OpenMP threads

Minimization stats:
  Stopping criterion = energy tolerance
  Energy initial, next-to-last, final = 
        -17529.2713068     -17529.2713503     -17529.2713512
  Force two-norm initial, final = 0.0374606 0.00396336
  Force max component initial, final = 0.0026886 0.00165216
  Final line search alpha, max atom move = 1 0.00165216
  Iterations, force evaluations = 4 8

MPI task timing breakdown:
Section |  min time  |  avg time  |  max time  |%varavg| %total
---------------------------------------------------------------
Pair    | 0.087331   | 0.087331   | 0.087331   |   0.0 | 93.92
Neigh   | 0          | 0          | 0          |   0.0 |  0.00
Comm    | 0.00030032 | 0.00030032 | 0.00030032 |   0.0 |  0.32
Output  | 0          | 0          | 0          |   0.0 |  0.00
Modify  | 0          | 0          | 0          |   0.0 |  0.00
Other   |            | 0.005352   |            |       |  5.76

Nlocal:    4001 ave 4001 max 4001 min
Histogram: 1 0 0 0 0 0 0 0 0 0
Nghost:    8195 ave 8195 max 8195 min
Histogram: 1 0 0 0 0 0 0 0 0 0
Neighs:    352143 ave 352143 max 352143 min
Histogram: 1 0 0 0 0 0 0 0 0 0

Total # of neighbors = 352143
Ave neighs/atom = 88.0137
Neighbor list builds = 0
Dangerous builds = 0
WARNING: Using 'neigh_modify every 1 delay 0 check yes' setting during minimization (../min.cpp:168)
Per MPI rank memory allocation (min/avg/max) = 6.198 | 6.198 | 6.198 Mbytes
Step Temp TotEng 
       4            0   -17529.009 
     100   0.16046167   -17529.024 
     200  0.018541182   -17529.103 
     300  0.024030994   -17529.104 
     400  0.029152362   -17529.105 
     500 0.0016314164   -17529.119 
     600 0.00012460125    -17529.12 
     700 2.3062486e-05    -17529.12 
     800 1.2404314e-05    -17529.12 
     900 1.3800173e-06    -17529.12 
    1000 2.5508005e-07    -17529.12 
    1100 7.5366687e-08    -17529.12 
    1200 2.0414232e-08    -17529.12 
    1300 2.6412142e-08    -17529.12 
    1400 8.7888789e-09    -17529.12 
    1500 3.0220394e-09    -17529.12 
    1600 1.1010754e-09    -17529.12 
    1700 4.3257431e-10    -17529.12 
    1800 1.8421806e-10    -17529.12 
    1900 7.9933914e-11    -17529.12 
    2000 4.2422254e-11    -17529.12 
    2100 2.8848505e-11    -17529.12 
    2200 3.9475221e-11    -17529.12 
    2300 3.0996045e-11    -17529.12 
    2400 3.9800412e-11    -17529.12 
    2500 3.4336998e-11    -17529.12 
    2600 4.4773914e-11    -17529.12 
    2700 4.0956578e-11    -17529.12 
    2800 5.378687e-11    -17529.12 
    2900 5.0391588e-11    -17529.12 
    3000  6.61967e-11    -17529.12 
    3100 6.3423441e-11    -17529.12 
    3200 7.1412312e-11    -17529.12 
    3300 8.1049464e-11    -17529.12 
    3400 7.9248389e-11    -17529.12 
    3500 1.045432e-10    -17529.12 
    3600 1.0415201e-10    -17529.12 
    3700 1.0430721e-10    -17529.12 
    3800 1.373556e-10    -17529.12 
    3900 1.3943525e-10    -17529.12 
    4000 1.4207012e-10    -17529.12 
    4100 1.8242402e-10    -17529.12 
    4200 1.9272341e-10    -17529.12 
    4300 1.9940028e-10    -17529.12 
    4400 2.0855954e-10    -17529.12 
    4500 2.6178815e-10    -17529.12 
    4600 2.8530566e-10    -17529.12 
    4700 3.0049677e-10    -17529.12 
    4800 3.1738469e-10    -17529.12 
    4900 3.4079305e-10    -17529.12 
    5000 4.0469007e-10    -17529.12 
    5004 3.9682953e-10    -17529.12 
Loop time of 55.7916 on 1 procs for 5000 steps with 4001 atoms

99.7% CPU use with 1 MPI tasks x no OpenMP threads

Minimization stats:
  Stopping criterion = max iterations
  Energy initial, next-to-last, final = 
        -17529.0089662     -17529.1203065     -17529.1203065
  Force two-norm initial, final = 1.68906 4.3666e-06
  Force max component initial, final = 0.843232 2.70059e-07
  Final line search alpha, max atom move = 0 0
  Iterations, force evaluations = 5000 5000

MPI task timing breakdown:
Section |  min time  |  avg time  |  max time  |%varavg| %total
---------------------------------------------------------------
Pair    | 48.529     | 48.529     | 48.529     |   0.0 | 86.98
Neigh   | 0          | 0          | 0          |   0.0 |  0.00
Comm    | 0.17903    | 0.17903    | 0.17903    |   0.0 |  0.32
Output  | 0.2781     | 0.2781     | 0.2781     |   0.0 |  0.50
Modify  | 5.5029     | 5.5029     | 5.5029     |   0.0 |  9.86
Other   |            | 1.303      |            |       |  2.33

Nlocal:    4001 ave 4001 max 4001 min
Histogram: 1 0 0 0 0 0 0 0 0 0
Nghost:    8195 ave 8195 max 8195 min
Histogram: 1 0 0 0 0 0 0 0 0 0
Neighs:    352123 ave 352123 max 352123 min
Histogram: 1 0 0 0 0 0 0 0 0 0

Total # of neighbors = 352123
Ave neighs/atom = 88.0087
Neighbor list builds = 0
Dangerous builds = 0
WARNING: Using 'neigh_modify every 1 delay 0 check yes' setting during minimization (../min.cpp:168)
Per MPI rank memory allocation (min/avg/max) = 7.6 | 7.6 | 7.6 Mbytes
Step Temp TotEng 
    5004            0    -17529.12 
    5100 2.4059366e-05    -17529.12 
    5200 6.3321902e-05    -17529.12 
    5300 5.3348599e-05    -17529.12 
    5400 9.2839101e-07    -17529.12 
    5500 1.4194445e-07    -17529.12 
    5600 2.1207521e-08    -17529.12 
    5700 3.3219901e-09    -17529.12 
    5800 5.3408739e-10    -17529.12 
    5900 9.2211314e-11    -17529.12 
    6000 1.5667203e-11    -17529.12 
    6100 2.1809254e-12    -17529.12 
    6200  6.61798e-13    -17529.12 
    6300 9.5678078e-14    -17529.12 
    6400 2.0731712e-14    -17529.12 
    6500 3.0170181e-15    -17529.12 
    6600 6.8566752e-16    -17529.12 
    6700 1.1881151e-16    -17529.12 
    6800 2.333205e-17    -17529.12 
    6900 4.7987337e-18    -17529.12 
    7000 8.3352217e-19    -17529.12 
    7100 1.7438007e-19    -17529.12 
    7200 3.1617619e-20    -17529.12 
    7300 5.9020491e-21    -17529.12 
    7400 1.4582861e-21    -17529.12 
    7500 4.5617779e-22    -17529.12 
    7600 3.4214398e-22    -17529.12 
    7700 2.9300785e-22    -17529.12 
    7800 2.6455595e-22    -17529.12 
    7900 2.9601245e-22    -17529.12 
    8000 2.7502686e-22    -17529.12 
    8100 2.5959555e-22    -17529.12 
    8200 2.9236469e-22    -17529.12 
    8300 2.7942169e-22    -17529.12 
    8400 2.6652246e-22    -17529.12 
    8500 2.6705208e-22    -17529.12 
    8600 2.894652e-22    -17529.12 
    8700 2.8155503e-22    -17529.12 
    8800 2.7235008e-22    -17529.12 
    8900 2.6490854e-22    -17529.12 
    9000 2.7359695e-22    -17529.12 
    9100 2.8535622e-22    -17529.12 
    9200 2.8339857e-22    -17529.12 
    9300 2.7745565e-22    -17529.12 
    9400 2.7213313e-22    -17529.12 
    9500 2.6935452e-22    -17529.12 
    9600 2.7156249e-22    -17529.12 
    9700 2.7914359e-22    -17529.12 
    9800 2.8389282e-22    -17529.12 
    9900 2.8212472e-22    -17529.12 
   10000 2.7983099e-22    -17529.12 
   10004 2.8063354e-22    -17529.12 
Loop time of 55.9811 on 1 procs for 5000 steps with 4001 atoms

99.7% CPU use with 1 MPI tasks x no OpenMP threads

Minimization stats:
  Stopping criterion = max iterations
  Energy initial, next-to-last, final = 
        -17529.1203065     -17529.1202475     -17529.1202475
  Force two-norm initial, final = 0.0101141 3.63537e-12
  Force max component initial, final = 0.00400673 1.12606e-13
  Final line search alpha, max atom move = 0 0
  Iterations, force evaluations = 5000 5000

MPI task timing breakdown:
Section |  min time  |  avg time  |  max time  |%varavg| %total
---------------------------------------------------------------
Pair    | 48.524     | 48.524     | 48.524     |   0.0 | 86.68
Neigh   | 0          | 0          | 0          |   0.0 |  0.00
Comm    | 0.17856    | 0.17856    | 0.17856    |   0.0 |  0.32
Output  | 0.27729    | 0.27729    | 0.27729    |   0.0 |  0.50
Modify  | 5.7116     | 5.7116     | 5.7116     |   0.0 | 10.20
Other   |            | 1.29       |            |       |  2.30

Nlocal:    4001 ave 4001 max 4001 min
Histogram: 1 0 0 0 0 0 0 0 0 0
Nghost:    8195 ave 8195 max 8195 min
Histogram: 1 0 0 0 0 0 0 0 0 0
Neighs:    352123 ave 352123 max 352123 min
Histogram: 1 0 0 0 0 0 0 0 0 0

Total # of neighbors = 352123
Ave neighs/atom = 88.0087
Neighbor list builds = 0
Dangerous builds = 0
Total wall time: 0:01:51
