supercell
4001 atoms
2 atom types
0.0 34.945 xlo xhi
0.0 34.945 ylo yhi
0.0 34.945 zlo zhi

Atoms # atomic

1 1 -0.00603451 -0.0105095 0.00617691 
2 1 1.72674 1.7514 0.00624334 
3 1 -0.0114142 1.75333 1.74474 
4 2 1.72885 0.00839274 1.73955 
5 2 3.48031 0.00685573 -0.00921829 
6 2 5.23379 1.7432 0.00516123 
7 1 3.49144 1.73616 1.74138 
8 2 5.252 0.0101586 1.7545 
9 2 6.99573 0.00322483 -0.00218308 
10 2 8.75279 1.75074 0.00617741 
11 1 6.99666 1.74804 1.74306 
12 1 8.74667 0.00842837 1.74629 
13 2 10.4844 -0.00853221 0.00739088 
14 1 12.2214 1.74084 -0.00408333 
15 2 10.4901 1.73945 1.74459 
16 2 12.2239 -0.0107088 1.75304 
17 2 13.9743 -0.0182915 0.000480444 
18 2 15.7172 1.74949 0.00994005 
19 1 13.974 1.73832 1.74785 
20 2 15.7271 -0.00302326 1.76271 
21 2 17.4775 -0.00343219 -0.00275255 
22 1 19.2069 1.73825 -0.0209856 
23 2 17.4712 1.74068 1.76156 
24 1 19.207 0.00541368 1.75763 
25 2 20.9582 -0.00809478 0.000845854 
26 1 22.7169 1.74611 -0.0120813 
27 1 20.9542 1.73185 1.7292 
28 1 22.7057 0.00188638 1.751 
29 2 24.4646 0.0102004 0.00185169 
30 1 26.2114 1.75475 -0.00169633 
31 1 24.4691 1.73914 1.74238 
32 1 26.2195 0.00192465 1.75668 
33 2 27.9529 0.000549829 -0.00218501 
34 2 29.693 1.75119 0.00104087 
35 1 27.9565 1.74349 1.74275 
36 1 29.7184 -0.000105385 1.74778 
37 2 31.4623 -0.00398416 0.000883823 
38 2 33.2185 1.74907 -0.00900952 
39 1 31.4527 1.75977 1.7179 
40 2 33.1941 -0.0161781 1.73772 
41 1 0.00864974 3.50658 0.0020789 
42 2 1.76207 5.23396 -0.00217502 
43 2 0.010831 5.24266 1.73236 
44 2 1.75013 3.48996 1.74402 
45 2 3.48608 3.49122 0.0126399 
46 1 5.25429 5.22658 -0.00400631 
47 1 3.50728 5.2531 1.74793 
48 2 5.24027 3.48253 1.74343 
49 2 7.00146 3.4869 -0.00271456 
50 2 8.73245 5.23629 0.0109087 
51 2 6.98306 5.22079 1.75215 
52 2 8.74035 3.48754 1.75779 
53 1 10.4889 3.49339 0.00609907 
54 2 12.2393 5.22303 0.00436844 
55 2 10.4969 5.23468 1.76507 
56 2 12.2327 3.47596 1.75667 
57 2 13.9649 3.47884 0.015571 
58 1 15.7108 5.23864 0.00737089 
59 1 13.977 5.23298 1.7439 
60 2 15.7136 3.49072 1.75374 
61 2 17.4637 3.49454 -0.00806935 
62 2 19.1999 5.2285 -0.0122907 
63 2 17.4558 5.23483 1.74455 
64 2 19.212 3.46937 1.74334 
65 2 20.963 3.47906 -0.00849989 
66 2 22.7084 5.22497 -0.00715485 
67 2 20.9537 5.22152 1.75105 
68 2 22.717 3.46342 1.73878 
69 2 24.4724 3.49219 -0.00652852 
70 2 26.2234 5.23 -0.00445238 
71 2 24.4559 5.23026 1.74347 
72 1 26.2084 3.50272 1.74632 
73 1 27.9576 3.47766 0.000176395 
74 1 29.7076 5.23358 0.00454871 
75 2 27.9707 5.23718 1.74673 
76 1 29.7081 3.4911 1.75566 
77 2 31.44 3.49902 -0.00799601 
78 2 33.199 5.25061 -0.00999679 
79 2 31.4409 5.24428 1.74825 
80 2 33.1877 3.50084 1.72811 
81 2 0.0071453 6.9925 -0.0198635 
82 2 1.77435 8.74735 -0.0186647 
83 2 0.000786735 8.73451 1.73544 
84 2 1.75895 6.99109 1.74085 
85 2 3.5196 6.98309 -0.00260143 
86 1 5.2626 8.726 -0.00868692 
87 2 3.52031 8.71885 1.74353 
88 2 5.26113 6.97838 1.74778 
89 2 6.99622 6.97115 -0.00517077 
90 2 8.72841 8.71678 -0.0203681 
91 2 6.98817 8.71711 1.757 
92 1 8.73416 6.97135 1.76448 
93 2 10.4709 6.97356 -0.00587495 
94 2 12.226 8.73176 -0.0204916 
95 2 10.4895 8.73139 1.7344 
96 2 12.244 6.99396 1.7361 
97 2 13.9932 6.97473 0.0108828 
98 2 15.7232 8.70928 -0.0163913 
99 1 13.9846 8.7386 1.73427 
100 1 15.7255 6.97537 1.76322 
101 1 17.4591 6.9732 -0.0164732 
102 2 19.2084 8.72497 -0.0181436 
103 2 17.4502 8.72838 1.73746 
104 2 19.1921 6.97935 1.73058 
105 2 20.9563 6.98897 -0.00560464 
106 2 22.7184 8.73345 -0.00833685 
107 2 20.9552 8.74119 1.72881 
108 2 22.7104 6.98458 1.73785 
109 1 24.4542 6.97027 -0.000400076 
110 2 26.2068 8.73023 -0.0116711 
111 2 24.4663 8.7271 1.7302 
112 2 26.2247 6.9716 1.74289 
113 1 27.9668 6.97629 -0.00557489 
114 1 29.7002 8.72806 0.00633444 
115 1 27.9473 8.73408 1.72427 
116 1 29.6992 6.99502 1.75153 
117 2 31.4362 6.99805 -0.00567583 
118 2 33.1933 8.75243 -0.015221 
119 1 31.4636 8.73684 1.73378 
120 2 33.1891 6.99928 1.72987 
121 1 0.0142904 10.4765 -0.01387 
122 1 1.74433 12.2224 -0.00153242 
123 2 0.00271141 12.2152 1.74395 
124 2 1.74442 10.4797 1.73815 
125 2 3.50579 10.4895 -0.00751942 
126 1 5.26751 12.2386 -0.0103745 
127 2 3.50072 12.2399 1.73526 
128 2 5.24667 10.4781 1.7443 
129 2 6.99993 10.4815 0.0112017 
130 2 8.73571 12.2242 -0.0010788 
131 2 6.99068 12.2393 1.75897 
132 2 8.75422 10.4623 1.74768 
133 1 10.4788 10.4609 -0.0246694 
134 2 12.2067 12.2268 -0.000794576 
135 1 10.4714 12.2202 1.75262 
136 1 12.2218 10.4792 1.75044 
137 2 13.9577 10.4824 0.0045042 
138 2 15.7249 12.2326 -0.00182335 
139 2 13.9671 12.2307 1.75519 
140 2 15.7064 10.4828 1.75471 
141 2 17.4696 10.4824 -0.00633565 
142 2 19.2144 12.2318 -0.0156391 
143 2 17.4667 12.2434 1.74298 
144 2 19.2274 10.4759 1.73665 
145 1 20.9605 10.481 -0.0169796 
146 2 22.7174 12.2329 0.0168788 
147 2 20.9689 12.2163 1.76309 
148 1 22.7023 10.4705 1.73918 
149 1 24.4562 10.4839 -0.00369108 
150 1 26.2031 12.2135 0.00648506 
151 2 24.4503 12.2206 1.74572 
152 2 26.1992 10.476 1.73504 
153 2 27.9585 10.4805 -0.00326051 
154 1 29.7071 12.2223 0.0131893 
155 2 27.9547 12.2153 1.74602 
156 2 29.7145 10.4624 1.73194 
157 1 31.455 10.4789 -0.00562322 
158 1 33.2024 12.2156 0.00599067 
159 2 31.467 12.2083 1.73998 
160 1 33.2154 10.4777 1.73952 
161 2 0.00446993 13.9586 0.00971193 
162 1 1.74139 15.7339 0.0101431 
163 2 0.00345236 15.7209 1.75325 
164 2 1.73878 13.9772 1.75043 
165 2 3.49715 13.9874 -0.00652166 
166 1 5.24657 15.7413 0.0114327 
167 1 3.48825 15.7131 1.75867 
168 2 5.24609 13.9801 1.74754 
169 2 6.99687 13.9948 0.0140717 
170 2 8.72661 15.7289 -0.00329081 
171 1 6.98876 15.7277 1.76927 
172 2 8.7429 13.9816 1.76296 
173 1 10.474 13.9805 -0.0124142 
174 2 12.2298 15.7249 -0.00531899 
175 2 10.4792 15.7078 1.73834 
176 2 12.2295 13.965 1.75179 
177 2 13.9767 13.9901 0.0155541 
178 2 15.7226 15.7432 0.00754615 
179 1 13.9755 15.7254 1.75592 
180 1 15.7253 13.9791 1.7451 
181 1 17.4687 13.9792 -0.011821 
182 2 19.2229 15.7262 -0.0119566 
183 2 17.4591 15.7343 1.7486 
184 2 19.2007 13.9952 1.74487 
185 2 20.9514 13.9687 0.016723 
186 1 22.7024 15.7327 -0.000692231 
187 2 20.9705 15.7458 1.76226 
188 2 22.7078 13.9905 1.76496 
189 2 24.4707 13.9773 0.00454304 
190 1 26.2161 15.7323 -0.00231194 
191 2 24.4656 15.743 1.7454 
192 2 26.2108 13.9902 1.7494 
193 1 27.9505 13.9717 0.00718125 
194 2 29.6895 15.7066 -0.00335924 
195 2 27.956 15.7315 1.74226 
196 2 29.7154 13.972 1.75188 
197 2 31.4459 13.9547 0.0041127 
198 2 33.2074 15.7087 -0.0144534 
199 2 31.4611 15.7203 1.74258 
200 1 33.2035 13.9659 1.73435 
201 2 0.00320932 17.4758 0.000910202 
202 2 1.74338 19.2077 0.00496975 
203 2 0.00440993 19.228 1.75635 
204 1 1.75142 17.4624 1.74597 
205 1 3.49197 17.4687 0.00527042 
206 2 5.22485 19.2126 0.00170224 
207 1 3.47125 19.2266 1.74984 
208 2 5.21256 17.4798 1.76792 
209 2 6.97522 17.47 0.00999695 
210 2 8.7313 19.2185 0.0162115 
211 2 6.96633 19.2241 1.75349 
212 2 8.72871 17.47 1.76049 
213 2 10.4971 17.4657 -0.00471017 
214 2 12.2393 19.2219 0.0162856 
215 2 10.4822 19.2191 1.76417 
216 2 12.2494 17.4711 1.7567 
217 1 13.9687 17.4788 -0.0046902 
218 1 15.7305 19.2157 -0.00184172 
219 2 13.9944 19.2014 1.76224 
220 1 15.7142 17.4781 1.74656 
221 1 17.4836 17.4764 -0.00932873 
222 2 19.2125 19.2175 0.00244223 
223 1 17.4658 19.2133 1.74014 
224 1 19.2128 17.4738 1.75252 
225 2 20.9666 17.4782 0.0120501 
226 2 22.7388 19.2214 0.00569061 
227 1 20.972 19.2113 1.75063 
228 1 22.725 17.471 1.7452 
229 2 24.4786 17.4721 -0.00343113 
230 1 26.2116 19.2193 0.0052018 
231 1 24.4788 19.2076 1.7575 
232 1 26.226 17.466 1.75325 
233 1 27.9614 17.4804 -0.00115519 
234 2 29.6905 19.2253 -0.00468837 
235 1 27.9599 19.2132 1.74356 
236 2 29.6979 17.4711 1.75516 
237 2 31.4391 17.4655 -0.00569258 
238 2 33.1927 19.2209 -0.00252511 
239 2 31.4427 19.2265 1.74919 
240 2 33.204 17.4728 1.74221 
241 1 -0.0154066 20.9587 -0.00609906 
242 2 1.72224 22.7258 0.00210489 
243 2 -0.0236027 22.7183 1.73685 
244 1 1.73018 20.9718 1.73616 
245 2 3.47608 20.9544 -0.00328264 
246 2 5.23754 22.7261 -0.00265021 
247 2 3.49465 22.7038 1.75289 
248 1 5.24197 20.9629 1.73161 
249 2 6.9814 20.967 -0.0106385 
250 2 8.7372 22.7171 0.017641 
251 1 6.98861 22.7121 1.74001 
252 2 8.71962 20.9787 1.76 
253 2 10.4863 20.9658 -8.73767e-05 
254 2 12.235 22.7213 0.0121411 
255 2 10.4654 22.7226 1.75265 
256 2 12.2328 20.9684 1.75689 
257 2 13.992 20.9593 0.0119854 
258 2 15.7336 22.7121 0.00282196 
259 2 13.9806 22.7227 1.77279 
260 2 15.743 20.9476 1.74513 
261 1 17.476 20.9688 -0.00683333 
262 2 19.2249 22.7285 -0.00986335 
263 2 17.4798 22.7161 1.7562 
264 2 19.2179 20.9461 1.74713 
265 2 20.9721 20.9781 0.0143817 
266 1 22.708 22.7089 0.0132981 
267 2 20.9805 22.7138 1.75497 
268 2 22.7329 20.9564 1.756 
269 1 24.4799 20.9746 0.00450681 
270 1 26.2217 22.7252 0.0156243 
271 1 24.4591 22.725 1.76416 
272 1 26.2177 20.9771 1.76354 
273 2 27.9419 20.9614 0.00433525 
274 2 29.7133 22.7162 0.00446752 
275 2 27.9697 22.7153 1.76021 
276 2 29.7077 20.9708 1.74076 
277 2 31.4568 20.9803 -0.00843061 
278 1 33.2 22.7166 -0.0111784 
279 1 31.4598 22.711 1.74565 
280 1 33.1853 20.9639 1.74008 
281 1 -0.00898642 24.4645 -0.0135926 
282 2 1.74922 26.2018 -0.00672386 
283 2 -0.0122376 26.1922 1.73097 
284 1 1.74778 24.4704 1.74942 
285 2 3.48405 24.4674 0.00105774 
286 1 5.24551 26.1885 0.0078653 
287 2 3.50121 26.2034 1.75445 
288 2 5.24832 24.4521 1.74468 
289 2 6.98806 24.4719 0.0132845 
290 2 8.71839 26.2361 0.0135757 
291 1 6.98179 26.227 1.7494 
292 1 8.72973 24.473 1.74852 
293 2 10.4766 24.4718 -0.00365506 
294 2 12.2458 26.2218 0.00774575 
295 2 10.4745 26.229 1.74748 
296 2 12.2167 24.4818 1.75482 
297 2 13.993 24.4763 0.010704 
298 1 15.7356 26.2041 0.0042007 
299 2 13.987 26.2223 1.76499 
300 2 15.7432 24.4652 1.75171 
301 1 17.4714 24.4629 -0.0162439 
302 2 19.2089 26.2228 -0.00395817 
303 1 17.4688 26.2145 1.73695 
304 2 19.2152 24.4818 1.74117 
305 1 20.9791 24.4755 -0.00933123 
306 1 22.7083 26.2302 0.00702065 
307 2 20.9594 26.2229 1.75318 
308 2 22.7138 24.466 1.75378 
309 2 24.4446 24.4551 0.0127214 
310 2 26.2024 26.2028 0.00479991 
311 2 24.4771 26.2064 1.75018 
312 2 26.2212 24.4621 1.76428 
313 2 27.9656 24.4717 0.00327663 
314 2 29.7157 26.2269 0.00123636 
315 1 27.9638 26.2179 1.74732 
316 2 29.7192 24.4658 1.75976 
317 2 31.4618 24.4669 -0.0179703 
318 1 33.1963 26.2041 -0.00808504 
319 2 31.4458 26.2115 1.73861 
320 1 33.1742 24.4622 1.72962 
321 2 -0.00458486 27.9492 -0.00606234 
322 2 1.75785 29.6906 -0.0146692 
323 2 -0.00500401 29.7069 1.74676 
324 2 1.73808 27.9355 1.74265 
325 1 3.50081 27.9434 -0.00312306 
326 1 5.2279 29.7064 0.00400441 
327 2 3.49429 29.6969 1.75546 
328 2 5.24088 27.9611 1.73939 
329 2 6.97002 27.9666 -0.00913377 
330 1 8.73796 29.7077 -0.00135098 
331 2 6.98128 29.6986 1.74289 
332 1 8.72146 27.976 1.74252 
333 2 10.4956 27.9815 0.0132709 
334 2 12.236 29.7212 0.0103556 
335 2 10.4802 29.7126 1.75237 
336 1 12.2521 27.967 1.7495 
337 1 13.9784 27.9558 -0.00617351 
338 1 15.7222 29.7091 0.0134188 
339 2 13.979 29.7102 1.74359 
340 2 15.7225 27.9574 1.73458 
341 1 17.48 27.9686 -0.00591369 
342 1 19.2311 29.7042 0.00779429 
343 2 17.4868 29.6934 1.75879 
344 1 19.2167 27.9565 1.75172 
345 2 20.9603 27.9729 0.00729338 
346 2 22.6964 29.7149 0.00550482 
347 1 20.9664 29.719 1.75003 
348 2 22.7033 27.967 1.76325 
349 2 24.4591 27.9575 0.00526623 
350 2 26.2203 29.7262 -0.00542462 
351 2 24.4607 29.7134 1.75192 
352 2 26.2228 27.967 1.74897 
353 2 27.9649 27.967 0.00316991 
354 1 29.6939 29.7042 -0.000648344 
355 1 27.9594 29.7234 1.74923 
356 2 29.707 27.9687 1.74852 
357 1 31.4505 27.968 0.0118765 
358 1 33.2105 29.706 -0.00204125 
359 2 31.4632 29.7147 1.74061 
360 1 33.1959 27.959 1.73413 
361 2 0.0008657 31.4501 -0.00510434 
362 2 1.75089 33.2079 -0.012925 
363 1 0.00663215 33.1804 1.73997 
364 2 1.73884 31.4481 1.74654 
365 2 3.497 31.4507 0.0123043 
366 1 5.24248 33.2126 0.0108702 
367 2 3.47968 33.2114 1.74444 
368 2 5.23778 31.4548 1.75054 
369 2 6.98583 31.451 0.00390009 
370 2 8.7411 33.1841 0.0128625 
371 2 7.00217 33.2189 1.74727 
372 2 8.73209 31.443 1.76106 
373 1 10.4734 31.4536 0.00730821 
374 1 12.2317 33.1968 0.0113579 
375 1 10.471 33.1831 1.76182 
376 2 12.2298 31.4567 1.75413 
377 1 13.976 31.4653 -0.000963096 
378 2 15.7148 33.1802 -0.000242532 
379 1 13.987 33.1846 1.76229 
380 2 15.7295 31.4526 1.76142 
381 2 17.4762 31.4337 0.0121126 
382 1 19.2084 33.196 -0.00395808 
383 2 17.4643 33.1998 1.7528 
384 2 19.217 31.4566 1.73825 
385 1 20.9664 31.4623 0.00096596 
386 1 22.7115 33.2024 -0.00496329 
387 2 20.9584 33.2119 1.7435 
388 2 22.708 31.4729 1.74562 
389 2 24.454 31.4641 -0.00385206 
390 1 26.2088 33.2042 -0.00156372 
391 2 24.4683 33.2223 1.74648 
392 2 26.2152 31.4735 1.73837 
393 2 27.9669 31.4644 -0.012572 
394 1 29.7204 33.202 -0.0121167 
395 2 27.9731 33.2133 1.73848 
396 2 29.7176 31.4629 1.73678 
397 2 31.4557 31.4317 -0.00493032 
398 2 33.1988 33.1733 0.00162942 
399 1 31.4602 33.178 1.73686 
400 1 33.2101 31.4479 1.75387 
401 2 -0.0128478 0.00205296 3.48473 
402 2 1.75201 1.75108 3.47666 
403 2 -0.0122843 1.75064 5.23794 
404 2 1.74032 0.0140553 5.25647 
405 2 3.49185 -0.00450144 3.49964 
406 1 5.24238 1.74612 3.49206 
407 2 3.50291 1.74724 5.22606 
408 1 5.24004 0.00103393 5.22443 
409 2 6.99548 0.0206471 3.502 
410 2 8.7281 1.75124 3.5044 
411 1 6.98346 1.73948 5.25351 
412 2 8.72711 -0.00627788 5.25887 
413 2 10.4754 0.00655449 3.50468 
414 1 12.2291 1.745 3.50115 
415 2 10.4885 1.75159 5.25359 
416 2 12.239 -0.0111069 5.25496 
417 2 13.9783 0.0110765 3.50586 
418 1 15.7201 1.73196 3.50947 
419 1 13.9617 1.74067 5.26135 
420 1 15.7157 0.0154435 5.26438 
421 2 17.4731 0.00279763 3.51584 
422 1 19.2157 1.74236 3.50528 
423 1 17.476 1.753 5.25069 
424 2 19.2106 0.00650087 5.2411 
425 1 20.9605 0.0145714 3.49881 
426 1 22.7096 1.74405 3.49408 
427 1 20.9751 1.73482 5.25351 
428 2 22.7273 0.0165541 5.23767 
429 1 24.4754 0.0156896 3.4894 
430 1 26.2183 1.76364 3.49322 
431 2 24.4602 1.75373 5.2294 
432 1 26.2209 0.00837142 5.23722 
433 1 27.9638 0.00573999 3.49177 
434 1 29.7212 1.75538 3.48444 
435 1 27.9581 1.74881 5.23757 
436 2 29.7183 0.00361316 5.22732 
437 1 31.4506 -0.000396348 3.47979 
438 2 33.1733 1.74133 3.47835 
439 1 31.4597 1.75416 5.24554 
440 1 33.1869 0.0082999 5.22186 
441 2 -0.0145407 3.49406 3.4867 
442 2 1.75036 5.23757 3.48416 
443 2 0.000899187 5.23258 5.24445 
444 1 1.7436 3.49046 5.22371 
445 2 3.50279 3.49148 3.47961 
446 2 5.24553 5.23548 3.48693 
447 2 3.49315 5.23217 5.22825 
448 2 5.23567 3.4856 5.24787 
449 1 6.97267 3.48345 3.49769 
450 2 8.73921 5.22308 3.49763 
451 2 6.99459 5.22818 5.253 
452 2 8.73327 3.48613 5.23783 
453 1 10.4852 3.47895 3.49839 
454 2 12.25 5.21812 3.50613 
455 1 10.482 5.22819 5.24137 
456 2 12.2418 3.4846 5.25299 
457 1 13.9891 3.47078 3.49789 
458 2 15.7148 5.22773 3.50139 
459 1 13.9868 5.23376 5.25894 
460 2 15.7123 3.47332 5.25191 
461 2 17.4654 3.4838 3.50475 
462 1 19.2163 5.23517 3.48586 
463 2 17.4787 5.22453 5.2611 
464 2 19.2348 3.49217 5.24315 
465 2 20.9574 3.47112 3.49857 
466 2 22.6886 5.22558 3.49179 
467 1 20.9577 5.25112 5.23995 
468 1 22.698 3.49181 5.22981 
469 2 24.4539 3.48168 3.48621 
470 2 26.214 5.23182 3.50035 
471 2 24.4548 5.25086 5.2343 
472 2 26.2024 3.49826 5.23637 
473 2 27.967 3.48563 3.48275 
474 2 29.7037 5.234 3.49233 
475 1 27.9561 5.23389 5.23336 
476 2 29.709 3.49024 5.23326 
477 1 31.4569 3.49656 3.4909 
478 2 33.1965 5.25001 3.48977 
479 2 31.4458 5.23823 5.24697 
480 2 33.2036 3.48753 5.24463 
481 2 0.00753802 6.99667 3.48794 
482 2 1.77044 8.74438 3.4997 
483 2 0.0083828 8.73739 5.23784 
484 2 1.75816 6.9769 5.2415 
485 2 3.50543 6.98367 3.50173 
486 1 5.25193 8.71494 3.50437 
487 2 3.50872 8.7219 5.25846 
488 1 5.24401 6.97582 5.24137 
489 2 6.99215 6.9793 3.51706 
490 2 8.72174 8.7334 3.50177 
491 1 6.98203 8.73909 5.25186 
492 2 8.7305 6.98474 5.2454 
493 2 10.4932 6.97833 3.50852 
494 2 12.241 8.73212 3.49056 
495 2 10.4784 8.72945 5.25512 
496 2 12.2406 6.97688 5.25778 
497 1 13.9805 6.99109 3.48573 
498 2 15.7215 8.73355 3.50466 
499 1 13.9732 8.74094 5.25366 
500 2 15.7125 6.98892 5.25213 
501 2 17.4679 6.97784 3.49548 
502 1 19.2059 8.73375 3.47204 
503 2 17.4696 8.72875 5.24899 
504 2 19.2157 6.98177 5.24173 
505 2 20.9459 6.99165 3.48126 
506 2 22.6989 8.73613 3.48241 
507 2 20.9659 8.72784 5.22905 
508 2 22.722 6.97433 5.24134 
509 2 24.4703 6.99018 3.47735 
510 2 26.2233 8.73493 3.50112 
511 1 24.4451 8.73296 5.22382 
512 1 26.2126 6.99896 5.2266 
513 1 27.9543 6.98528 3.49591 
514 2 29.6876 8.73656 3.46528 
515 1 27.9728 8.73428 5.2344 
516 2 29.6907 6.98217 5.23468 
517 2 31.4397 6.98767 3.49355 
518 2 33.2026 8.7373 3.48334 
519 2 31.4369 8.73885 5.22963 
520 2 33.1959 7.00228 5.23831 
521 1 0.00911551 10.4652 3.49 
522 1 1.73369 12.2253 3.49498 
523 1 -0.0022389 12.2153 5.23749 
524 2 1.73748 10.4825 5.24342 
525 2 3.50557 10.4837 3.50032 
526 1 5.24563 12.2294 3.50307 
527 2 3.48694 12.2224 5.23884 
528 2 5.25384 10.4671 5.25644 
529 1 6.97397 10.4673 3.47893 
530 2 8.72462 12.2257 3.50184 
531 2 6.98135 12.219 5.24881 
532 1 8.72398 10.4824 5.24554 
533 1 10.4812 10.4594 3.49255 
534 2 12.213 12.2318 3.49604 
535 2 10.4744 12.2137 5.23039 
536 2 12.2225 10.4833 5.24364 
537 2 13.9645 10.4748 3.50769 
538 2 15.7268 12.2396 3.50682 
539 2 13.9776 12.2258 5.25228 
540 1 15.7321 10.4709 5.24779 
541 2 17.4799 10.4923 3.48994 
542 2 19.2334 12.228 3.48999 
543 2 17.4787 12.242 5.24331 
544 2 19.2115 10.4713 5.23109 
545 1 20.9604 10.4632 3.49862 
546 1 22.7062 12.2175 3.4955 
547 1 20.957 12.22 5.22435 
548 2 22.7119 10.4849 5.21884 
549 2 24.4498 10.4715 3.4714 
550 2 26.1995 12.2372 3.48592 
551 2 24.4565 12.2199 5.23967 
552 2 26.2145 10.4774 5.22864 
553 1 27.9516 10.487 3.49111 
554 2 29.7064 12.2246 3.48126 
555 1 27.9645 12.2388 5.22909 
556 2 29.7103 10.4927 5.22268 
557 2 31.468 10.4695 3.48289 
558 2 33.2242 12.212 3.48736 
559 2 31.4645 12.2136 5.23438 
560 1 33.2029 10.4636 5.24026 
561 1 -0.00325379 13.9711 3.48401 
562 2 1.74502 15.7076 3.4846 
563 1 0.00599754 15.7151 5.23435 
564 1 1.74647 13.9617 5.23519 
565 2 3.49165 13.9677 3.49541 
566 2 5.24442 15.7312 3.49106 
567 2 3.47729 15.7247 5.22694 
568 2 5.22869 13.9829 5.25126 
569 1 6.97343 13.981 3.49873 
570 1 8.73803 15.7222 3.4992 
571 2 6.97908 15.7333 5.23267 
572 2 8.73273 13.9672 5.23583 
573 1 10.4854 13.9827 3.50034 
574 2 12.2283 15.723 3.50019 
575 2 10.4737 15.7325 5.24108 
576 1 12.213 13.9805 5.2491 
577 1 13.9771 13.9692 3.50747 
578 2 15.7127 15.7188 3.49286 
579 2 13.983 15.7105 5.24467 
580 1 15.7289 13.9782 5.25792 
581 1 17.4714 13.9796 3.50265 
582 2 19.2252 15.7341 3.5098 
583 1 17.4626 15.7292 5.23362 
584 2 19.2244 13.995 5.22966 
585 1 20.9718 13.9897 3.49694 
586 1 22.7091 15.7398 3.50469 
587 1 20.9772 15.7435 5.2343 
588 1 22.7029 13.9683 5.24052 
589 2 24.445 13.9893 3.50239 
590 1 26.2295 15.7145 3.51278 
591 2 24.4549 15.7187 5.23786 
592 1 26.2051 13.9603 5.23391 
593 2 27.9622 13.9628 3.49419 
594 2 29.7073 15.7195 3.50831 
595 2 27.9762 15.705 5.24244 
596 1 29.7246 13.9589 5.23763 
597 2 31.4712 13.9708 3.48774 
598 2 33.2068 15.729 3.49876 
599 2 31.4627 15.7249 5.25276 
600 2 33.2151 13.9691 5.23132 
601 2 0.00565125 17.4702 3.50521 
602 2 1.73902 19.2314 3.48937 
603 1 -0.00363096 19.2137 5.22801 
604 2 1.73411 17.4731 5.23236 
605 1 3.47974 17.4788 3.49783 
606 1 5.21021 19.2377 3.4945 
607 2 3.48634 19.2384 5.22911 
608 1 5.23312 17.4592 5.22802 
609 1 6.98085 17.4946 3.49239 
610 1 8.72171 19.2248 3.49307 
611 1 6.96747 19.2173 5.23081 
612 2 8.71634 17.4922 5.23481 
613 2 10.4783 17.4695 3.49292 
614 1 12.2348 19.2191 3.49889 
615 1 10.4822 19.2095 5.22781 
616 2 12.2289 17.4694 5.24085 
617 1 13.9742 17.4757 3.51091 
618 1 15.7387 19.2132 3.50718 
619 2 13.9705 19.2281 5.23792 
620 2 15.7346 17.4644 5.23591 
621 2 17.4632 17.4737 3.48992 
622 2 19.2124 19.2128 3.48666 
623 2 17.4752 19.2149 5.24291 
624 1 19.2098 17.476 5.25125 
625 2 20.9797 17.4806 3.50411 
626 2 22.7361 19.2106 3.49921 
627 2 20.9812 19.2045 5.24187 
628 1 22.7317 17.481 5.25349 
629 1 24.4814 17.4639 3.49151 
630 1 26.2209 19.2242 3.50302 
631 2 24.4736 19.2155 5.23429 
632 2 26.2177 17.456 5.22895 
633 2 27.9548 17.4771 3.497 
634 2 29.7007 19.2237 3.50382 
635 1 27.9587 19.2106 5.24837 
636 1 29.7112 17.4779 5.24555 
637 2 31.4588 17.4744 3.50344 
638 1 33.2052 19.2104 3.48897 
639 2 31.4633 19.2114 5.2491 
640 1 33.2097 17.4724 5.25589 
641 1 -0.0087774 20.9683 3.48935 
642 2 1.72918 22.7266 3.48656 
643 1 -0.0153624 22.7238 5.2196 
644 1 1.72722 20.9776 5.25536 
645 2 3.47422 20.9771 3.49055 
646 2 5.25274 22.7047 3.49126 
647 1 3.47751 22.7251 5.22893 
648 1 5.23505 20.9846 5.24265 
649 2 6.97912 20.9681 3.4985 
650 1 8.72131 22.7254 3.49234 
651 1 6.99061 22.7155 5.23039 
652 1 8.73196 20.9624 5.23163 
653 2 10.4719 20.9595 3.49839 
654 2 12.2202 22.7165 3.49954 
655 2 10.4683 22.7056 5.23991 
656 2 12.2138 20.9664 5.24739 
657 2 13.9898 20.954 3.50324 
658 2 15.738 22.6999 3.51512 
659 1 13.9676 22.7036 5.24659 
660 2 15.7341 20.9679 5.24944 
661 1 17.4755 20.9549 3.50413 
662 2 19.23 22.7138 3.4972 
663 1 17.4935 22.6969 5.24961 
664 2 19.2366 20.9508 5.23772 
665 1 20.9799 20.9436 3.49479 
666 1 22.7099 22.7246 3.50575 
667 2 20.9677 22.7282 5.2305 
668 1 22.7176 20.9736 5.2336 
669 2 24.4593 20.973 3.48644 
670 2 26.2227 22.7244 3.49193 
671 2 24.4805 22.731 5.22396 
672 2 26.2191 20.9774 5.23779 
673 2 27.9667 20.9603 3.50112 
674 1 29.7155 22.7085 3.49491 
675 1 27.9728 22.715 5.2398 
676 2 29.7069 20.9625 5.25297 
677 2 31.4619 20.9628 3.49661 
678 2 33.1856 22.7105 3.4836 
679 2 31.4476 22.7174 5.24728 
680 2 33.2102 20.9626 5.22834 
681 1 -0.0318363 24.4695 3.4821 
682 1 1.7341 26.1917 3.49261 
683 2 -0.0219732 26.1913 5.23523 
684 2 1.72578 24.4522 5.21124 
685 1 3.50774 24.4548 3.49358 
686 2 5.24131 26.2175 3.49345 
687 2 3.50058 26.202 5.22808 
688 2 5.254 24.4587 5.22799 
689 1 6.99108 24.4709 3.48602 
690 2 8.735 26.2253 3.48198 
691 1 6.99787 26.2356 5.22933 
692 2 8.72317 24.4617 5.22534 
693 2 10.4694 24.4699 3.49397 
694 1 12.2315 26.2118 3.50112 
695 2 10.4802 26.2188 5.24173 
696 2 12.2343 24.4629 5.24705 
697 2 13.9834 24.4728 3.52253 
698 2 15.7158 26.2148 3.50045 
699 1 13.959 26.2236 5.25265 
700 2 15.7192 24.4552 5.26038 
701 1 17.4635 24.4709 3.51367 
702 2 19.2102 26.2104 3.50666 
703 1 17.4639 26.213 5.24137 
704 2 19.2243 24.4786 5.24056 
705 1 20.9735 24.4806 3.49297 
706 2 22.7334 26.2016 3.49646 
707 1 20.9846 26.2038 5.24413 
708 2 22.7275 24.4704 5.24418 
709 1 24.489 24.4761 3.50171 
710 1 26.2173 26.2274 3.50311 
711 1 24.4684 26.2188 5.24544 
712 1 26.2372 24.4681 5.23812 
713 2 27.9684 24.4758 3.49769 
714 1 29.7187 26.2245 3.4995 
715 2 27.9642 26.2152 5.23253 
716 2 29.7174 24.4642 5.23407 
717 2 31.4565 24.4659 3.4996 
718 2 33.1888 26.2194 3.48269 
719 1 31.468 26.2231 5.23965 
720 1 33.1779 24.4505 5.24127 
721 2 -0.00806596 27.9429 3.4883 
722 2 1.75165 29.6942 3.49744 
723 2 0.00773403 29.7036 5.24547 
724 2 1.7338 27.945 5.23666 
725 2 3.48236 27.9572 3.49206 
726 1 5.22737 29.7091 3.50802 
727 1 3.4841 29.7076 5.24334 
728 2 5.23337 27.9588 5.24281 
729 2 6.98476 27.9642 3.49014 
730 1 8.73041 29.711 3.49817 
731 2 6.98744 29.7004 5.24934 
732 2 8.74152 27.982 5.23445 
733 2 10.5009 27.9758 3.47786 
734 1 12.2474 29.7172 3.49842 
735 2 10.4743 29.7199 5.24219 
736 2 12.2288 27.9747 5.23637 
737 1 13.9758 27.9666 3.51059 
738 2 15.725 29.7096 3.49544 
739 2 13.9882 29.7144 5.24777 
740 2 15.7297 27.9648 5.25429 
741 2 17.4651 27.9508 3.49252 
742 2 19.2206 29.7055 3.50147 
743 1 17.4665 29.7095 5.23533 
744 1 19.2207 27.9482 5.24478 
745 2 20.9625 27.9572 3.51072 
746 2 22.7063 29.7168 3.50407 
747 1 20.9652 29.724 5.24396 
748 1 22.7054 27.9624 5.24065 
749 2 24.4681 27.9498 3.50471 
750 2 26.2181 29.717 3.49231 
751 2 24.4564 29.6966 5.2363 
752 1 26.22 27.9699 5.23782 
753 2 27.9651 27.9629 3.4894 
754 2 29.7151 29.7196 3.4832 
755 2 27.9671 29.7104 5.24391 
756 2 29.7199 27.9698 5.2495 
757 2 31.4664 27.9713 3.49129 
758 1 33.209 29.7043 3.50463 
759 2 31.4587 29.7078 5.24585 
760 1 33.2091 27.9628 5.24423 
761 2 -0.0018286 31.4541 3.50214 
762 2 1.73336 33.1976 3.49275 
763 2 -0.0163196 33.2073 5.24162 
764 2 1.7455 31.4528 5.24725 
765 1 3.48767 31.4547 3.4861 
766 2 5.2374 33.1973 3.48086 
767 2 3.48997 33.1985 5.23583 
768 2 5.23644 31.4574 5.24693 
769 2 6.97604 31.4432 3.51445 
770 2 8.7353 33.1877 3.49682 
771 2 6.98698 33.2054 5.24846 
772 1 8.73057 31.4486 5.25171 
773 2 10.4811 31.4434 3.50038 
774 2 12.2345 33.1931 3.49836 
775 2 10.4946 33.1899 5.24908 
776 1 12.2264 31.4561 5.24494 
777 2 13.9883 31.4479 3.50373 
778 2 15.7227 33.2081 3.51799 
779 1 13.9759 33.1911 5.24799 
780 1 15.7277 31.4523 5.24842 
781 1 17.4748 31.4599 3.50869 
782 2 19.2092 33.2145 3.49864 
783 2 17.4485 33.2002 5.26745 
784 2 19.2002 31.4458 5.25366 
785 2 20.9539 31.4702 3.48821 
786 2 22.7241 33.2259 3.48996 
787 2 20.961 33.2014 5.24017 
788 2 22.7145 31.4499 5.24384 
789 2 24.467 31.4729 3.49585 
790 1 26.2157 33.1968 3.5057 
791 2 24.4734 33.2091 5.23972 
792 2 26.2263 31.4566 5.24386 
793 2 27.9755 31.4706 3.49227 
794 1 29.7226 33.2 3.48948 
795 2 27.9811 33.2146 5.24205 
796 1 29.7122 31.458 5.23341 
797 1 31.4621 31.4486 3.48775 
798 1 33.2082 33.2061 3.4889 
799 1 31.4584 33.1915 5.23445 
800 2 33.1947 31.4514 5.22866 
801 1 -0.0184355 0.00833416 6.98529 
802 2 1.74737 1.74626 6.98989 
803 1 0.00410771 1.74352 8.72332 
804 1 1.7401 1.39374e-05 8.73138 
805 1 3.49904 0.0103907 6.98538 
806 1 5.23362 1.74377 6.98125 
807 2 3.49949 1.74823 8.73473 
808 1 5.23642 0.00540388 8.72815 
809 1 6.9846 0.00400941 6.9932 
810 1 8.73524 1.75217 6.99151 
811 1 6.97221 1.73946 8.72695 
812 1 8.74674 0.00505931 8.72692 
813 1 10.4926 -0.00723606 6.9845 
814 1 12.2248 1.74404 7.00746 
815 2 10.4743 1.74296 8.7351 
816 2 12.2138 -0.00948724 8.73909 
817 2 13.9605 -0.00412498 6.99755 
818 2 15.7296 1.75023 6.99341 
819 2 13.9838 1.7337 8.73108 
820 2 15.7361 -0.0129545 8.73972 
821 2 17.4768 0.00799448 7.0054 
822 2 19.2214 1.74923 6.99521 
823 1 17.4806 1.75667 8.76042 
824 2 19.2251 -0.00677853 8.7481 
825 2 20.9731 -0.00546316 6.9809 
826 1 22.7239 1.74319 6.99556 
827 2 20.9658 1.73578 8.73152 
828 1 22.7034 -0.0142325 8.74334 
829 2 24.4642 5.47539e-06 6.98792 
830 2 26.2126 1.74743 6.98215 
831 2 24.4511 1.74224 8.73455 
832 1 26.2194 0.0159645 8.73871 
833 2 27.9675 0.0119904 6.97925 
834 1 29.7171 1.75603 6.98189 
835 2 27.9603 1.75089 8.73201 
836 2 29.7077 0.00405258 8.72382 
837 2 31.4599 0.00225778 6.96914 
838 2 33.1906 1.74799 7.00062 
839 2 31.4546 1.7678 8.73594 
840 1 33.1855 0.00917069 8.73763 
841 1 -0.0040296 3.49192 6.98428 
842 2 1.74321 5.23577 6.97966 
843 1 0.00868624 5.24514 8.73168 
844 2 1.73781 3.48871 8.73884 
845 2 3.48106 3.49186 6.99111 
846 2 5.23878 5.24399 7.0025 
847 2 3.49847 5.23183 8.74439 
848 1 5.24616 3.49724 8.73598 
849 2 6.98361 3.48455 6.99853 
850 2 8.74127 5.22463 7.00762 
851 1 6.9751 5.24248 8.75536 
852 2 8.72928 3.48725 8.75121 
853 2 10.4926 3.49261 6.99626 
854 2 12.2377 5.22921 6.99418 
855 1 10.492 5.23577 8.74487 
856 1 12.231 3.4879 8.72932 
857 1 13.9883 3.46863 7.00185 
858 1 15.7126 5.23016 6.99969 
859 2 13.9627 5.2411 8.72543 
860 2 15.7159 3.4905 8.7603 
861 2 17.4656 3.49798 7.00716 
862 1 19.2346 5.2242 7.00275 
863 2 17.4776 5.23165 8.72999 
864 2 19.2381 3.48514 8.75539 
865 2 20.9802 3.48978 6.98128 
866 2 22.6947 5.23826 6.9867 
867 2 20.9746 5.24692 8.73365 
868 1 22.7001 3.49609 8.73268 
869 2 24.44 3.50146 6.99176 
870 2 26.2193 5.26229 6.97776 
871 2 24.4472 5.2577 8.72981 
872 2 26.1886 3.50211 8.72664 
873 2 27.9672 3.49924 6.97845 
874 1 29.7067 5.2566 6.97859 
875 2 27.9677 5.2627 8.71649 
876 2 29.7165 3.51018 8.72833 
877 2 31.4568 3.51496 6.98759 
878 2 33.192 5.24865 6.99567 
879 1 31.4422 5.256 8.73817 
880 1 33.1937 3.5131 8.73679 
881 2 0.00310755 6.97634 6.98607 
882 1 1.73798 8.72074 6.98998 
883 2 -0.00152161 8.71758 8.74093 
884 2 1.75941 6.97705 8.73157 
885 1 3.49052 6.97057 6.98256 
886 1 5.24879 8.71142 6.99623 
887 2 3.4954 8.72744 8.7124 
888 1 5.24145 6.98034 8.73697 
889 1 6.99102 6.96508 6.98776 
890 2 8.72186 8.74206 6.98468 
891 2 6.98031 8.71173 8.72439 
892 2 8.72897 6.96477 8.74205 
893 1 10.4736 6.96917 6.9899 
894 2 12.2371 8.73118 6.99736 
895 2 10.4784 8.7095 8.72489 
896 1 12.2295 6.9891 8.7269 
897 1 13.9791 6.98523 6.99667 
898 1 15.7092 8.73342 6.98299 
899 2 13.9735 8.73327 8.73185 
900 2 15.7163 6.99069 8.73766 
901 1 17.4887 6.98199 6.98785 
902 1 19.2351 8.74537 6.98509 
903 2 17.4736 8.72977 8.72069 
904 2 19.2289 6.98665 8.72796 
905 2 20.9541 6.9898 6.98771 
906 2 22.7143 8.72906 6.98883 
907 2 20.9735 8.73686 8.74301 
908 1 22.7066 7.00644 8.73996 
909 2 24.4695 7.00249 6.9855 
910 1 26.2156 8.73779 6.96121 
911 2 24.4803 8.73198 8.73617 
912 1 26.2195 7.00289 8.7353 
913 2 27.9613 6.99723 6.97674 
914 2 29.7022 8.72675 6.99367 
915 1 27.9675 8.73067 8.73323 
916 1 29.7094 6.9905 8.73334 
917 1 31.4515 6.99856 6.97705 
918 2 33.2005 8.74252 6.99152 
919 2 31.4513 8.72052 8.73603 
920 2 33.1844 6.98421 8.73785 
921 2 -0.00390765 10.4816 6.98489 
922 2 1.74387 12.2253 6.97602 
923 2 0.000527232 12.2228 8.71734 
924 2 1.74392 10.4782 8.73255 
925 1 3.48993 10.4748 6.98167 
926 1 5.23389 12.235 6.99616 
927 2 3.48557 12.2259 8.72879 
928 1 5.23741 10.4806 8.72633 
929 1 6.97717 10.487 7.00153 
930 1 8.74086 12.225 6.99005 
931 2 6.98245 12.2412 8.72651 
932 2 8.72428 10.4812 8.72665 
933 1 10.4837 10.4803 7.0018 
934 2 12.213 12.224 6.99122 
935 2 10.4797 12.233 8.73497 
936 2 12.223 10.4696 8.73109 
937 1 13.9788 10.4943 6.99113 
938 2 15.7273 12.2137 6.98587 
939 1 13.9668 12.2182 8.72438 
940 2 15.7166 10.4758 8.71928 
941 2 17.4668 10.4624 6.98569 
942 2 19.2256 12.2273 6.98428 
943 2 17.4671 12.2307 8.73185 
944 2 19.233 10.4846 8.72262 
945 2 20.9687 10.4792 6.96583 
946 2 22.7146 12.2219 6.96592 