LAMMPS (7 Aug 2019)
Processor partition = 3
Reading data file ...
  orthogonal box = (0 0 0) to (34.945 34.945 34.945)
  1 by 1 by 1 MPI processor grid
  reading atoms ...
  4001 atoms
  read_data CPU = 0.00252636 secs
1309 atoms in group Ni
2692 atoms in group Fe
WARNING: Using 'neigh_modify every 1 delay 0 check yes' setting during minimization (../min.cpp:168)
Neighbor list info ...
  update every 1 steps, delay 0 steps, check yes
  max neighbors/atom: 2000, page size: 100000
  master list distance cutoff = 7.6
  ghost atom cutoff = 7.6
  binsize = 3.8, bins = 10 10 10
  1 neighbor lists, perpetual/occasional/extra = 1 0 0
  (1) pair eam/alloy, perpetual
      attributes: half, newton on
      pair build: half/bin/atomonly/newton
      stencil: half/bin/3d/newton
      bin: standard
Setting up cg style minimization ...
  Unit style    : metal
  Current step  : 0
Per MPI rank memory allocation (min/avg/max) = 7.323 | 7.323 | 7.323 Mbytes
Step Temp TotEng 
       0            0   -17529.271 
       4            0   -17529.271 
Loop time of 0.0932064 on 1 procs for 4 steps with 4001 atoms

99.3% CPU use with 1 MPI tasks x no OpenMP threads

Minimization stats:
  Stopping criterion = energy tolerance
  Energy initial, next-to-last, final = 
        -17529.2713068     -17529.2713503     -17529.2713512
  Force two-norm initial, final = 0.0374606 0.00396336
  Force max component initial, final = 0.0026886 0.00165216
  Final line search alpha, max atom move = 1 0.00165216
  Iterations, force evaluations = 4 8

MPI task timing breakdown:
Section |  min time  |  avg time  |  max time  |%varavg| %total
---------------------------------------------------------------
Pair    | 0.087514   | 0.087514   | 0.087514   |   0.0 | 93.89
Neigh   | 0          | 0          | 0          |   0.0 |  0.00
Comm    | 0.00030133 | 0.00030133 | 0.00030133 |   0.0 |  0.32
Output  | 0          | 0          | 0          |   0.0 |  0.00
Modify  | 0          | 0          | 0          |   0.0 |  0.00
Other   |            | 0.005391   |            |       |  5.78

Nlocal:    4001 ave 4001 max 4001 min
Histogram: 1 0 0 0 0 0 0 0 0 0
Nghost:    8195 ave 8195 max 8195 min
Histogram: 1 0 0 0 0 0 0 0 0 0
Neighs:    352143 ave 352143 max 352143 min
Histogram: 1 0 0 0 0 0 0 0 0 0

Total # of neighbors = 352143
Ave neighs/atom = 88.0137
Neighbor list builds = 0
Dangerous builds = 0
WARNING: Using 'neigh_modify every 1 delay 0 check yes' setting during minimization (../min.cpp:168)
Setting up quickmin style minimization ...
  Unit style    : metal
  Current step  : 4
Per MPI rank memory allocation (min/avg/max) = 6.198 | 6.198 | 6.198 Mbytes
Step Temp TotEng 
       4            0   -17529.062 
     100   0.25377999    -17529.03 
     200 0.0076166814   -17529.169 
     300  0.008060918   -17529.172 
     400  0.024564439   -17529.165 
     500 0.0032287339   -17529.177 
     600 0.00022893405   -17529.178 
     700 4.0080413e-05   -17529.179 
     800 1.345954e-05   -17529.179 
     900 3.028426e-06   -17529.179 
    1000 7.9372112e-07   -17529.179 
    1100 2.4961688e-07   -17529.179 
    1200 7.3650191e-08   -17529.179 
    1300 1.0002967e-07   -17529.179 
    1400 3.3518544e-08   -17529.179 
    1500 1.1350333e-08   -17529.179 
    1600 4.0623345e-09   -17529.179 
    1700 1.6124437e-09   -17529.179 
    1800 7.5389807e-10   -17529.179 
    1900 4.0991036e-10   -17529.179 
    2000 2.9913625e-10   -17529.179 
    2100 2.7005592e-10   -17529.179 
    2200 4.3920389e-10   -17529.179 
    2300 3.7845533e-10   -17529.179 
    2400 5.1004047e-10   -17529.179 
    2500 4.5079613e-10   -17529.179 
    2600 5.9492209e-10   -17529.179 
    2700 5.4799011e-10   -17529.179 
    2800 7.225988e-10   -17529.179 
    2900 6.7828831e-10   -17529.179 
    3000 8.9247846e-10   -17529.179 
    3100 8.5592218e-10   -17529.179 
    3200 9.6449987e-10   -17529.179 
    3300 1.0949588e-09   -17529.179 
    3400 1.0715465e-09   -17529.179 
    3500 1.4138221e-09   -17529.179 
    3600 1.4094789e-09   -17529.179 
    3700 1.4122453e-09   -17529.179 
    3800 1.8605771e-09   -17529.179 
    3900 1.8897718e-09   -17529.179 
    4000 1.9265313e-09   -17529.179 
    4100 2.4750003e-09   -17529.179 
    4200 2.6160928e-09   -17529.179 
    4300 2.7087431e-09   -17529.179 
    4400 2.8348106e-09   -17529.179 
    4500 3.5607842e-09   -17529.179 
    4600 3.8831853e-09   -17529.179 
    4700 4.0931428e-09   -17529.179 
    4800 4.3265483e-09   -17529.179 
    4900 4.6496159e-09   -17529.179 
    5000 5.5264917e-09   -17529.179 
    5004 5.4194708e-09   -17529.179 
Loop time of 55.7916 on 1 procs for 5000 steps with 4001 atoms

99.7% CPU use with 1 MPI tasks x no OpenMP threads

Minimization stats:
  Stopping criterion = max iterations
  Energy initial, next-to-last, final = 
        -17529.0622204     -17529.1788808     -17529.1788808
  Force two-norm initial, final = 1.68813 1.61362e-05
  Force max component initial, final = 0.831592 7.23495e-07
  Final line search alpha, max atom move = 0 0
  Iterations, force evaluations = 5000 5000

MPI task timing breakdown:
Section |  min time  |  avg time  |  max time  |%varavg| %total
---------------------------------------------------------------
Pair    | 48.524     | 48.524     | 48.524     |   0.0 | 86.97
Neigh   | 0          | 0          | 0          |   0.0 |  0.00
Comm    | 0.18272    | 0.18272    | 0.18272    |   0.0 |  0.33
Output  | 0.27879    | 0.27879    | 0.27879    |   0.0 |  0.50
Modify  | 6.1354     | 6.1354     | 6.1354     |   0.0 | 11.00
Other   |            | 0.6707     |            |       |  1.20

Nlocal:    4001 ave 4001 max 4001 min
Histogram: 1 0 0 0 0 0 0 0 0 0
Nghost:    8195 ave 8195 max 8195 min
Histogram: 1 0 0 0 0 0 0 0 0 0
Neighs:    352121 ave 352121 max 352121 min
Histogram: 1 0 0 0 0 0 0 0 0 0

Total # of neighbors = 352121
Ave neighs/atom = 88.0082
Neighbor list builds = 0
Dangerous builds = 0
WARNING: Using 'neigh_modify every 1 delay 0 check yes' setting during minimization (../min.cpp:168)
Setting up quickmin style minimization ...
  Unit style    : metal
  Current step  : 5004
Per MPI rank memory allocation (min/avg/max) = 7.6 | 7.6 | 7.6 Mbytes
Step Temp TotEng 
    5004            0   -17529.179 
    5100 2.1320539e-10   -17529.179 
    5200 1.1279882e-06   -17529.179 
    5300 1.4929465e-05   -17529.179 
    5400 8.5867877e-08   -17529.179 
    5500 4.4529198e-07   -17529.179 
    5600 1.085285e-06   -17529.179 
    5700 2.6616125e-07   -17529.179 
    5800 7.6788098e-08   -17529.179 
    5900 2.8417828e-08   -17529.179 
    6000 1.3583547e-08   -17529.179 
    6100 8.0660526e-09   -17529.179 
    6200  1.40131e-08   -17529.179 
    6300 1.1921073e-08   -17529.179 
    6400 1.6476362e-08   -17529.179 
    6500 1.5571349e-08   -17529.179 
    6600 2.0917803e-08   -17529.179 
    6700 2.3976426e-08   -17529.179 
    6800 2.6566722e-08   -17529.179 
    6900 3.4691458e-08   -17529.179 
    7000 3.4399259e-08   -17529.179 
    7100 4.4675623e-08   -17529.179 
    7200 4.5397839e-08   -17529.179 
    7300 5.0349208e-08   -17529.179 
    7400 6.0914188e-08   -17529.179 
    7500 6.2612313e-08   -17529.179 
    7600 8.2720354e-08   -17529.179 
    7700 8.6458095e-08   -17529.179 
    7800 9.4410404e-08   -17529.179 
    7900 1.2015925e-07   -17529.179 
    8000 1.2789719e-07   -17529.179 
    8100 1.3942983e-07   -17529.179 
    8200 1.7916553e-07   -17529.179 
    8300 1.9458817e-07   -17529.179 
    8400 2.1109639e-07   -17529.179 
    8500 2.4182147e-07   -17529.179 
    8600 2.9729201e-07   -17529.179 
    8700 3.2871099e-07   -17529.179 
    8800 3.6098418e-07   -17529.179 
    8900 4.0036685e-07   -17529.179 
    9000 4.6848967e-07   -17529.179 
    9100 5.552841e-07   -17529.179 
    9200 6.2371667e-07   -17529.179 
    9300 6.9213121e-07   -17529.179 
    9400 7.6845391e-07   -17529.179 
    9500 8.5995121e-07   -17529.179 
    9600 9.8178596e-07   -17529.179 
    9700 1.1389123e-06   -17529.179 
    9800 1.3024734e-06   -17529.179 
    9900 1.4636407e-06   -17529.179 
   10000 1.6316833e-06   -17529.179 
   10004 1.6444168e-06   -17529.179 
Loop time of 55.9811 on 1 procs for 5000 steps with 4001 atoms

99.7% CPU use with 1 MPI tasks x no OpenMP threads

Minimization stats:
  Stopping criterion = max iterations
  Energy initial, next-to-last, final = 
        -17529.1788808     -17529.1786162     -17529.1786162
  Force two-norm initial, final = 1.61362e-05 0.000278251
  Force max component initial, final = 7.23495e-07 9.61403e-06
  Final line search alpha, max atom move = 0 0
  Iterations, force evaluations = 5000 5000

MPI task timing breakdown:
Section |  min time  |  avg time  |  max time  |%varavg| %total
---------------------------------------------------------------
Pair    | 48.532     | 48.532     | 48.532     |   0.0 | 86.69
Neigh   | 0          | 0          | 0          |   0.0 |  0.00
Comm    | 0.18252    | 0.18252    | 0.18252    |   0.0 |  0.33
Output  | 0.27743    | 0.27743    | 0.27743    |   0.0 |  0.50
Modify  | 6.3263     | 6.3263     | 6.3263     |   0.0 | 11.30
Other   |            | 0.6633     |            |       |  1.18

Nlocal:    4001 ave 4001 max 4001 min
Histogram: 1 0 0 0 0 0 0 0 0 0
Nghost:    8195 ave 8195 max 8195 min
Histogram: 1 0 0 0 0 0 0 0 0 0
Neighs:    352116 ave 352116 max 352116 min
Histogram: 1 0 0 0 0 0 0 0 0 0

Total # of neighbors = 352116
Ave neighs/atom = 88.007
Neighbor list builds = 0
Dangerous builds = 0
Total wall time: 0:01:51
